REMARK  Name = Nelfinavir_NFV.pdb
REMARK  16 active torsions:
REMARK  status: ('A' for Active; 'I' for Inactive)
REMARK    1  A    between atoms: C1_2  and  C2_3
REMARK    2  A    between atoms: C6_7  and  O2_8
REMARK    3  A    between atoms: C7_9  and  C8_10
REMARK    4  A    between atoms: N1_11  and  C9_12
REMARK    5  A    between atoms: C9_12  and  C10_14
REMARK    6  A    between atoms: C9_12  and  C17_22
REMARK    7  A    between atoms: C10_14  and  S1_15
REMARK    8  A    between atoms: S1_15  and  C11_16
REMARK    9  A    between atoms: C17_22  and  O3_24
REMARK   10  A    between atoms: C17_22  and  C18_25
REMARK   11  A    between atoms: C18_25  and  N2_26
REMARK   12  A    between atoms: C19_27  and  C20_29
REMARK   13  A    between atoms: N3_31  and  C21_32
REMARK   14  A    between atoms: C21_32  and  C22_33
REMARK   15  A    between atoms: C21_32  and  C23_34
REMARK   16  A    between atoms: C21_32  and  C24_35
REMARK                            x       y       z     vdW  Elec       q    Type
REMARK                         _______ _______ _______ _____ _____    ______ ____
ROOT
ATOM      1  C18 NFV     1      -1.534   0.263  -0.180  0.00  0.00    +0.027 C 
ATOM      2  H22 NFV     1      -1.546   0.189   0.907  0.00  0.00    +0.045 HD
ATOM      3  H23 NFV     1      -1.404   1.305  -0.472  0.00  0.00    +0.045 HD
ENDROOT
BRANCH   1   4
ATOM      4  N2  NFV     1      -2.803  -0.242  -0.720  0.00  0.00    -0.289 NA
ATOM      5  C19 NFV     1      -3.867   0.287   0.140  0.00  0.00    +0.088 C 
ATOM      6  H3  NFV     1      -3.834   1.376   0.129  0.00  0.00    +0.056 HD
ATOM      7  C25 NFV     1      -5.231  -0.186  -0.368  0.00  0.00    -0.026 C 
ATOM      8  C26 NFV     1      -5.444   0.338  -1.790  0.00  0.00    -0.035 C 
ATOM      9  H4  NFV     1      -5.473   1.428  -1.772  0.00  0.00    +0.030 HD
ATOM     10  C27 NFV     1      -6.760  -0.193  -2.351  0.00  0.00    -0.050 C 
ATOM     11  C28 NFV     1      -6.719  -1.722  -2.409  0.00  0.00    -0.053 C 
ATOM     12  C29 NFV     1      -5.563  -2.161  -3.311  0.00  0.00    -0.053 C 
ATOM     13  C30 NFV     1      -4.245  -1.644  -2.732  0.00  0.00    -0.049 C 
ATOM     14  C31 NFV     1      -4.281  -0.124  -2.671  0.00  0.00    -0.025 C 
ATOM     15  H5  NFV     1      -4.384   0.282  -3.677  0.00  0.00    +0.032 HD
ATOM     16  C32 NFV     1      -2.968   0.362  -2.047  0.00  0.00    +0.003 C 
ATOM     17  H34 NFV     1      -5.261  -1.276  -0.373  0.00  0.00    +0.029 HD
ATOM     18  H35 NFV     1      -6.016   0.198   0.284  0.00  0.00    +0.029 HD
ATOM     19  H36 NFV     1      -7.582   0.123  -1.709  0.00  0.00    +0.027 HD
ATOM     20  H37 NFV     1      -6.912   0.203  -3.355  0.00  0.00    +0.027 HD
ATOM     21  H38 NFV     1      -6.570  -2.120  -1.406  0.00  0.00    +0.027 HD
ATOM     22  H39 NFV     1      -7.659  -2.096  -2.815  0.00  0.00    +0.027 HD
ATOM     23  H40 NFV     1      -5.535  -3.250  -3.362  0.00  0.00    +0.027 HD
ATOM     24  H41 NFV     1      -5.706  -1.753  -4.311  0.00  0.00    +0.027 HD
ATOM     25  H42 NFV     1      -4.106  -2.046  -1.729  0.00  0.00    +0.027 HD
ATOM     26  H43 NFV     1      -3.419  -1.964  -3.368  0.00  0.00    +0.027 HD
ATOM     27  H44 NFV     1      -2.994   1.447  -1.947  0.00  0.00    +0.043 HD
ATOM     28  H45 NFV     1      -2.133   0.076  -2.686  0.00  0.00    +0.043 HD
BRANCH   5  29
ATOM     29  C20 NFV     1      -3.662  -0.206   1.550  0.00  0.00    +0.231 C 
ATOM     30  O4  NFV     1      -2.974  -1.183   1.757  0.00  0.00    -0.274 OA
ATOM     31  N3  NFV     1      -4.242   0.440   2.581  0.00  0.00    -0.309 N 
ATOM     32  H24 NFV     1      -4.792   1.222   2.415  0.00  0.00    +0.149 HD
BRANCH  31  33
ATOM     33  C21 NFV     1      -4.042  -0.038   3.951  0.00  0.00    +0.026 C 
BRANCH  33  34
ATOM     34  C22 NFV     1      -2.551  -0.009   4.289  0.00  0.00    -0.044 C 
ATOM     35  H25 NFV     1      -2.178   1.012   4.203  0.00  0.00    +0.025 HD
ATOM     36  H26 NFV     1      -2.402  -0.365   5.309  0.00  0.00    +0.025 HD
ATOM     37  H27 NFV     1      -2.008  -0.653   3.597  0.00  0.00    +0.025 HD
ENDBRANCH  33  34
BRANCH  33  38
ATOM     38  C23 NFV     1      -4.804   0.866   4.923  0.00  0.00    -0.044 C 
ATOM     39  H28 NFV     1      -5.866   0.845   4.682  0.00  0.00    +0.025 HD
ATOM     40  H29 NFV     1      -4.655   0.510   5.942  0.00  0.00    +0.025 HD
ATOM     41  H30 NFV     1      -4.431   1.887   4.837  0.00  0.00    +0.025 HD
ENDBRANCH  33  38
BRANCH  33  42
ATOM     42  C24 NFV     1      -4.565  -1.471   4.072  0.00  0.00    -0.044 C 
ATOM     43  H31 NFV     1      -4.023  -2.115   3.379  0.00  0.00    +0.025 HD
ATOM     44  H32 NFV     1      -4.416  -1.827   5.091  0.00  0.00    +0.025 HD
ATOM     45  H33 NFV     1      -5.628  -1.492   3.831  0.00  0.00    +0.025 HD
ENDBRANCH  33  42
ENDBRANCH  31  33
ENDBRANCH   5  29
ENDBRANCH   1   4
BRANCH   1  46
ATOM     46  C17 NFV     1      -0.377  -0.569  -0.736  0.00  0.00    +0.087 C 
ATOM     47  H2  NFV     1      -0.563  -1.626  -0.542  0.00  0.00    +0.062 HD
BRANCH  46  48
ATOM     48  C9  NFV     1       0.927  -0.149  -0.054  0.00  0.00    +0.060 C 
ATOM     49  H1  NFV     1       0.814  -0.228   1.027  0.00  0.00    +0.053 HD
BRANCH  48  52
ATOM     50  O1  NFV     1       3.172  -0.638   1.358  0.00  0.00    -0.270 OA
ATOM     51  C1  NFV     1       3.097  -1.204   0.285  0.00  0.00    +0.245 C 
ATOM     52  N1  NFV     1       2.014  -1.025  -0.498  0.00  0.00    -0.305 N 
ATOM     53  H13 NFV     1       1.955  -1.477  -1.354  0.00  0.00    +0.149 HD
BRANCH  51  54
ATOM     54  C2  NFV     1       4.192  -2.093  -0.160  0.00  0.00    +0.043 A 
ATOM     55  C3  NFV     1       4.070  -2.812  -1.350  0.00  0.00    -0.049 A 
ATOM     56  C4  NFV     1       5.094  -3.641  -1.762  0.00  0.00    -0.058 A 
ATOM     57  C5  NFV     1       6.241  -3.762  -0.999  0.00  0.00    -0.020 A 
ATOM     58  C6  NFV     1       6.371  -3.050   0.186  0.00  0.00    +0.120 A 
ATOM     59  C7  NFV     1       5.352  -2.211   0.605  0.00  0.00    +0.003 A 
ATOM     60  H6  NFV     1       3.176  -2.721  -1.948  0.00  0.00    +0.063 HD
ATOM     61  H7  NFV     1       4.998  -4.197  -2.682  0.00  0.00    +0.062 HD
ATOM     62  H8  NFV     1       7.039  -4.412  -1.326  0.00  0.00    +0.065 HD
BRANCH  59  63
ATOM     63  C8  NFV     1       5.491  -1.437   1.891  0.00  0.00    -0.036 C 
ATOM     64  H10 NFV     1       5.831  -0.425   1.672  0.00  0.00    +0.028 HD
ATOM     65  H11 NFV     1       4.526  -1.395   2.396  0.00  0.00    +0.028 HD
ATOM     66  H12 NFV     1       6.217  -1.933   2.536  0.00  0.00    +0.028 HD
ENDBRANCH  59  63
BRANCH  58  67
ATOM     67  O2  NFV     1       7.501  -3.172   0.931  0.00  0.00    -0.506 OA
ATOM     68  H9  NFV     1       8.116  -2.494   0.620  0.00  0.00    +0.292 HD
ENDBRANCH  58  67
ENDBRANCH  51  54
ENDBRANCH  48  52
BRANCH  48  69
ATOM     69  C10 NFV     1       1.254   1.298  -0.428  0.00  0.00    +0.019 C 
ATOM     70  H14 NFV     1       1.367   1.378  -1.510  0.00  0.00    +0.040 HD
ATOM     71  H15 NFV     1       0.445   1.950  -0.099  0.00  0.00    +0.040 HD
BRANCH  69  72
ATOM     72  S1  NFV     1       2.800   1.797   0.379  0.00  0.00    -0.123 S 
BRANCH  72  73
ATOM     73  C11 NFV     1       2.931   3.454  -0.207  0.00  0.00    +0.008 A 
ATOM     74  C12 NFV     1       4.007   4.245   0.175  0.00  0.00    -0.048 A 
ATOM     75  C13 NFV     1       4.106   5.542  -0.286  0.00  0.00    -0.061 A 
ATOM     76  C14 NFV     1       3.136   6.055  -1.128  0.00  0.00    -0.062 A 
ATOM     77  C15 NFV     1       2.063   5.271  -1.510  0.00  0.00    -0.061 A 
ATOM     78  C16 NFV     1       1.960   3.970  -1.058  0.00  0.00    -0.048 A 
ATOM     79  H16 NFV     1       4.765   3.845   0.833  0.00  0.00    +0.063 HD
ATOM     80  H17 NFV     1       4.943   6.158   0.011  0.00  0.00    +0.062 HD
ATOM     81  H18 NFV     1       3.216   7.070  -1.487  0.00  0.00    +0.062 HD
ATOM     82  H19 NFV     1       1.307   5.674  -2.167  0.00  0.00    +0.062 HD
ATOM     83  H20 NFV     1       1.122   3.358  -1.357  0.00  0.00    +0.063 HD
ENDBRANCH  72  73
ENDBRANCH  69  72
ENDBRANCH  48  69
ENDBRANCH  46  48
BRANCH  46  84
ATOM     84  O3  NFV     1      -0.269  -0.355  -2.145  0.00  0.00    -0.389 OA
ATOM     85  H21 NFV     1      -0.104   0.589  -2.272  0.00  0.00    +0.210 HD
ENDBRANCH  46  84
ENDBRANCH   1  46
TORSDOF 16
