REMARK  Name = Atazanavir_ATV.pdb
REMARK  27 active torsions:
REMARK  status: ('A' for Active; 'I' for Inactive)
REMARK    1  A    between atoms: C1_2  and  O2_3
REMARK    2  A    between atoms: O2_3  and  C2_4
REMARK    3  A    between atoms: N1_5  and  C3_6
REMARK    4  A    between atoms: C3_6  and  C4_8
REMARK    5  A    between atoms: C3_6  and  C35_52
REMARK    6  A    between atoms: N2_10  and  C5_11
REMARK    7  A    between atoms: C5_11  and  C6_13
REMARK    8  A    between atoms: C5_11  and  C13_20
REMARK    9  A    between atoms: C6_13  and  C7_14
REMARK   10  A    between atoms: C13_20  and  O4_22
REMARK   11  A    between atoms: C13_20  and  C14_23
REMARK   12  A    between atoms: C14_23  and  N3_24
REMARK   13  A    between atoms: N3_24  and  N4_25
REMARK   14  A    between atoms: N3_24  and  C23_39
REMARK   15  A    between atoms: C15_26  and  C16_28
REMARK   16  A    between atoms: C16_28  and  N5_30
REMARK   17  A    between atoms: C16_28  and  C19_35
REMARK   18  A    between atoms: C17_31  and  O7_33
REMARK   19  A    between atoms: O7_33  and  C18_34
REMARK   20  A    between atoms: C19_35  and  C20_36
REMARK   21  A    between atoms: C19_35  and  C21_37
REMARK   22  A    between atoms: C19_35  and  C22_38
REMARK   23  A    between atoms: C23_39  and  C24_40
REMARK   24  A    between atoms: C27_43  and  C28_44
REMARK   25  A    between atoms: C35_52  and  C36_53
REMARK   26  A    between atoms: C35_52  and  C37_54
REMARK   27  A    between atoms: C35_52  and  C38_55
REMARK                            x       y       z     vdW  Elec       q    Type
REMARK                         _______ _______ _______ _____ _____    ______ ____
ROOT
ATOM      1  N3  ATV     1      -1.121   0.910  -0.290  0.00  0.00    -0.220 NA
ENDROOT
BRANCH   1   2
ATOM      2  N4  ATV     1      -1.450  -0.249   0.354  0.00  0.00    -0.246 N 
ATOM      3  C15 ATV     1      -2.258  -1.147  -0.245  0.00  0.00    +0.248 C 
ATOM      4  O5  ATV     1      -2.590  -0.988  -1.400  0.00  0.00    -0.272 OA
ATOM      5  H20 ATV     1      -1.101  -0.427   1.241  0.00  0.00    +0.169 HD
BRANCH   3   6
ATOM      6  C16 ATV     1      -2.749  -2.348   0.522  0.00  0.00    +0.109 C 
ATOM      7  H4  ATV     1      -3.177  -2.023   1.470  0.00  0.00    +0.060 HD
BRANCH   6   8
ATOM      8  N5  ATV     1      -3.771  -3.044  -0.263  0.00  0.00    -0.269 N 
ATOM      9  C17 ATV     1      -4.696  -3.803   0.357  0.00  0.00    +0.401 C 
ATOM     10  O6  ATV     1      -4.681  -3.910   1.568  0.00  0.00    -0.226 OA
ATOM     11  H21 ATV     1      -3.782  -2.959  -1.229  0.00  0.00    +0.153 HD
BRANCH   9  12
ATOM     12  O7  ATV     1      -5.635  -4.443  -0.364  0.00  0.00    -0.454 OA
BRANCH  12  13
ATOM     13  C18 ATV     1      -6.631  -5.262   0.304  0.00  0.00    +0.083 C 
ATOM     14  H22 ATV     1      -7.301  -5.696  -0.438  0.00  0.00    +0.066 HD
ATOM     15  H23 ATV     1      -6.135  -6.059   0.857  0.00  0.00    +0.066 HD
ATOM     16  H24 ATV     1      -7.205  -4.644   0.995  0.00  0.00    +0.066 HD
ENDBRANCH  12  13
ENDBRANCH   9  12
ENDBRANCH   6   8
BRANCH   6  17
ATOM     17  C19 ATV     1      -1.578  -3.295   0.790  0.00  0.00    -0.011 C 
BRANCH  17  18
ATOM     18  C22 ATV     1      -0.963  -3.735  -0.540  0.00  0.00    -0.058 C 
ATOM     19  H31 ATV     1      -0.606  -2.860  -1.082  0.00  0.00    +0.024 HD
ATOM     20  H32 ATV     1      -0.129  -4.411  -0.349  0.00  0.00    +0.024 HD
ATOM     21  H33 ATV     1      -1.717  -4.249  -1.136  0.00  0.00    +0.024 HD
ENDBRANCH  17  18
BRANCH  17  22
ATOM     22  C21 ATV     1      -2.080  -4.524   1.552  0.00  0.00    -0.058 C 
ATOM     23  H28 ATV     1      -2.834  -5.037   0.956  0.00  0.00    +0.024 HD
ATOM     24  H29 ATV     1      -1.246  -5.199   1.743  0.00  0.00    +0.024 HD
ATOM     25  H30 ATV     1      -2.517  -4.210   2.499  0.00  0.00    +0.024 HD
ENDBRANCH  17  22
BRANCH  17  26
ATOM     26  C20 ATV     1      -0.519  -2.574   1.627  0.00  0.00    -0.058 C 
ATOM     27  H25 ATV     1      -0.954  -2.270   2.579  0.00  0.00    +0.024 HD
ATOM     28  H26 ATV     1       0.320  -3.246   1.809  0.00  0.00    +0.024 HD
ATOM     29  H27 ATV     1      -0.169  -1.693   1.089  0.00  0.00    +0.024 HD
ENDBRANCH  17  26
ENDBRANCH   6  17
ENDBRANCH   3   6
ENDBRANCH   1   2
BRANCH   1  30
ATOM     30  C14 ATV     1       0.346   0.982  -0.307  0.00  0.00    +0.045 C 
ATOM     31  H18 ATV     1       0.731   0.796   0.695  0.00  0.00    +0.047 HD
ATOM     32  H19 ATV     1       0.657   1.973  -0.637  0.00  0.00    +0.047 HD
BRANCH  30  33
ATOM     33  C13 ATV     1       0.897  -0.072  -1.269  0.00  0.00    +0.088 C 
ATOM     34  H3  ATV     1       0.353  -0.024  -2.212  0.00  0.00    +0.063 HD
BRANCH  33  35
ATOM     35  O4  ATV     1       0.739  -1.371  -0.694  0.00  0.00    -0.389 OA
ATOM     36  H17 ATV     1       1.365  -1.429   0.040  0.00  0.00    +0.210 HD
ENDBRANCH  33  35
BRANCH  33  37
ATOM     37  C5  ATV     1       2.382   0.196  -1.523  0.00  0.00    +0.054 C 
ATOM     38  H2  ATV     1       2.503   1.186  -1.962  0.00  0.00    +0.053 HD
BRANCH  37  41
ATOM     39  C4  ATV     1       4.277   0.796  -0.114  0.00  0.00    +0.234 C 
ATOM     40  O3  ATV     1       4.665   1.533  -0.995  0.00  0.00    -0.274 OA
ATOM     41  N2  ATV     1       3.114   0.130  -0.256  0.00  0.00    -0.308 N 
ATOM     42  H9  ATV     1       2.761  -0.392   0.482  0.00  0.00    +0.149 HD
BRANCH  39  43
ATOM     43  C3  ATV     1       5.096   0.624   1.140  0.00  0.00    +0.107 C 
ATOM     44  H1  ATV     1       4.979  -0.393   1.513  0.00  0.00    +0.060 HD
BRANCH  43  47
ATOM     45  O1  ATV     1       7.163  -0.387   2.544  0.00  0.00    -0.226 OA
ATOM     46  C1  ATV     1       7.468   0.321   1.605  0.00  0.00    +0.401 C 
ATOM     47  N1  ATV     1       6.507   0.875   0.839  0.00  0.00    -0.269 N 
ATOM     48  H8  ATV     1       6.751   1.440   0.089  0.00  0.00    +0.153 HD
BRANCH  46  49
ATOM     49  O2  ATV     1       8.766   0.547   1.325  0.00  0.00    -0.454 OA
BRANCH  49  50
ATOM     50  C2  ATV     1       9.801  -0.055   2.147  0.00  0.00    +0.083 C 
ATOM     51  H5  ATV     1      10.780   0.240   1.770  0.00  0.00    +0.066 HD
ATOM     52  H6  ATV     1       9.690   0.284   3.177  0.00  0.00    +0.066 HD
ATOM     53  H7  ATV     1       9.709  -1.140   2.110  0.00  0.00    +0.066 HD
ENDBRANCH  49  50
ENDBRANCH  46  49
ENDBRANCH  43  47
BRANCH  43  54
ATOM     54  C35 ATV     1       4.616   1.616   2.202  0.00  0.00    -0.011 C 
BRANCH  54  55
ATOM     55  C38 ATV     1       5.493   1.491   3.449  0.00  0.00    -0.058 C 
ATOM     56  H50 ATV     1       6.529   1.710   3.188  0.00  0.00    +0.024 HD
ATOM     57  H51 ATV     1       5.152   2.197   4.206  0.00  0.00    +0.024 HD
ATOM     58  H52 ATV     1       5.425   0.477   3.842  0.00  0.00    +0.024 HD
ENDBRANCH  54  55
BRANCH  54  59
ATOM     59  C37 ATV     1       3.163   1.308   2.568  0.00  0.00    -0.058 C 
ATOM     60  H47 ATV     1       3.076   0.263   2.865  0.00  0.00    +0.024 HD
ATOM     61  H48 ATV     1       2.853   1.947   3.394  0.00  0.00    +0.024 HD
ATOM     62  H49 ATV     1       2.523   1.495   1.705  0.00  0.00    +0.024 HD
ENDBRANCH  54  59
BRANCH  54  63
ATOM     63  C36 ATV     1       4.713   3.040   1.651  0.00  0.00    -0.058 C 
ATOM     64  H44 ATV     1       4.088   3.129   0.762  0.00  0.00    +0.024 HD
ATOM     65  H45 ATV     1       4.371   3.746   2.407  0.00  0.00    +0.024 HD
ATOM     66  H46 ATV     1       5.748   3.259   1.390  0.00  0.00    +0.024 HD
ENDBRANCH  54  63
ENDBRANCH  43  54
ENDBRANCH  39  43
ENDBRANCH  37  41
BRANCH  37  67
ATOM     67  C6  ATV     1       2.933  -0.859  -2.485  0.00  0.00    -0.007 C 
ATOM     68  H10 ATV     1       2.894  -1.839  -2.011  0.00  0.00    +0.033 HD
ATOM     69  H11 ATV     1       2.332  -0.870  -3.394  0.00  0.00    +0.033 HD
BRANCH  67  70
ATOM     70  C7  ATV     1       4.361  -0.525  -2.832  0.00  0.00    -0.046 A 
ATOM     71  C8  ATV     1       5.394  -1.023  -2.060  0.00  0.00    -0.059 A 
ATOM     72  C9  ATV     1       6.704  -0.717  -2.378  0.00  0.00    -0.062 A 
ATOM     73  C10 ATV     1       6.982   0.087  -3.467  0.00  0.00    -0.062 A 
ATOM     74  C11 ATV     1       5.949   0.585  -4.239  0.00  0.00    -0.062 A 
ATOM     75  C12 ATV     1       4.639   0.275  -3.924  0.00  0.00    -0.059 A 
ATOM     76  H12 ATV     1       5.178  -1.652  -1.209  0.00  0.00    +0.062 HD
ATOM     77  H13 ATV     1       7.511  -1.106  -1.774  0.00  0.00    +0.062 HD
ATOM     78  H14 ATV     1       8.005   0.327  -3.715  0.00  0.00    +0.062 HD
ATOM     79  H15 ATV     1       6.165   1.214  -5.091  0.00  0.00    +0.062 HD
ATOM     80  H16 ATV     1       3.832   0.664  -4.528  0.00  0.00    +0.062 HD
ENDBRANCH  67  70
ENDBRANCH  37  67
ENDBRANCH  33  37
ENDBRANCH  30  33
ENDBRANCH   1  30
BRANCH   1  81
ATOM     81  C23 ATV     1      -1.588   2.012   0.561  0.00  0.00    +0.042 C 
ATOM     82  H34 ATV     1      -1.361   1.788   1.603  0.00  0.00    +0.049 HD
ATOM     83  H35 ATV     1      -1.085   2.935   0.270  0.00  0.00    +0.049 HD
BRANCH  81  84
ATOM     84  C24 ATV     1      -3.077   2.178   0.397  0.00  0.00    -0.032 A 
ATOM     85  C25 ATV     1      -3.940   1.585   1.300  0.00  0.00    -0.057 A 
ATOM     86  C26 ATV     1      -5.305   1.734   1.154  0.00  0.00    -0.052 A 
ATOM     87  C27 ATV     1      -5.812   2.483   0.094  0.00  0.00    +0.000 A 
ATOM     88  C33 ATV     1      -4.937   3.078  -0.813  0.00  0.00    -0.052 A 
ATOM     89  C34 ATV     1      -3.575   2.927  -0.654  0.00  0.00    -0.057 A 
ATOM     90  H36 ATV     1      -3.546   1.005   2.121  0.00  0.00    +0.062 HD
ATOM     91  H37 ATV     1      -5.978   1.271   1.860  0.00  0.00    +0.062 HD
ATOM     92  H42 ATV     1      -5.325   3.659  -1.637  0.00  0.00    +0.062 HD
ATOM     93  H43 ATV     1      -2.896   3.388  -1.357  0.00  0.00    +0.062 HD
BRANCH  87  94
ATOM     94  C28 ATV     1      -7.277   2.647  -0.068  0.00  0.00    +0.071 A 
ATOM     95  N6  ATV     1      -8.040   2.837   1.001  0.00  0.00    -0.255 NA
ATOM     96  C29 ATV     1      -9.345   2.987   0.901  0.00  0.00    +0.028 A 
ATOM     97  C30 ATV     1      -9.971   2.951  -0.332  0.00  0.00    -0.044 A 
ATOM     98  C31 ATV     1      -9.210   2.754  -1.476  0.00  0.00    -0.058 A 
ATOM     99  C32 ATV     1      -7.841   2.605  -1.341  0.00  0.00    -0.036 A 
ATOM    100  H38 ATV     1      -9.934   3.140   1.793  0.00  0.00    +0.083 HD
ATOM    101  H39 ATV     1     -11.041   3.074  -0.404  0.00  0.00    +0.063 HD
ATOM    102  H40 ATV     1      -9.676   2.722  -2.450  0.00  0.00    +0.062 HD
ATOM    103  H41 ATV     1      -7.219   2.450  -2.210  0.00  0.00    +0.064 HD
ENDBRANCH  87  94
ENDBRANCH  81  84
ENDBRANCH   1  81
TORSDOF 27
