REMARK  Name = Indinavir_IDV.pdb
REMARK  17 active torsions:
REMARK  status: ('A' for Active; 'I' for Inactive)
REMARK    1  A    between atoms: C1_1  and  C2_2
REMARK    2  A    between atoms: C2_2  and  C3_3
REMARK    3  A    between atoms: C2_2  and  C4_4
REMARK    4  A    between atoms: C2_2  and  N1_5
REMARK    5  A    between atoms: C5_6  and  C6_8
REMARK    6  A    between atoms: N2_11  and  C31_44
REMARK    7  A    between atoms: N3_14  and  C10_15
REMARK    8  A    between atoms: C10_15  and  C11_16
REMARK    9  A    between atoms: C11_16  and  C12_18
REMARK   10  A    between atoms: C11_16  and  O4_43
REMARK   11  A    between atoms: C12_18  and  C13_19
REMARK   12  A    between atoms: C13_19  and  C14_21
REMARK   13  A    between atoms: C13_19  and  C21_28
REMARK   14  A    between atoms: C14_21  and  C15_22
REMARK   15  A    between atoms: N4_30  and  C22_31
REMARK   16  A    between atoms: C30_40  and  O3_42
REMARK   17  A    between atoms: C31_44  and  C32_45
REMARK                            x       y       z     vdW  Elec       q    Type
REMARK                         _______ _______ _______ _____ _____    ______ ____
ROOT
ATOM      1  C10 IDV     1      -1.139  -0.308   0.434  0.00  0.00    +0.026 C 
ATOM      2  H22 IDV     1      -1.307  -0.214   1.507  0.00  0.00    +0.045 HD
ATOM      3  H23 IDV     1      -0.736  -1.297   0.214  0.00  0.00    +0.045 HD
ENDROOT
BRANCH   1  10
ATOM      4  C6  IDV     1      -3.226  -1.315   0.011  0.00  0.00    +0.100 C 
ATOM      5  H1  IDV     1      -3.317  -1.437   1.091  0.00  0.00    +0.057 HD
ATOM      6  C7  IDV     1      -4.617  -1.144  -0.601  0.00  0.00    +0.023 C 
ATOM      7  N2  IDV     1      -5.293   0.001   0.023  0.00  0.00    -0.295 NA
ATOM      8  C8  IDV     1      -4.478   1.187  -0.267  0.00  0.00    +0.012 C 
ATOM      9  C9  IDV     1      -3.087   1.016   0.345  0.00  0.00    +0.013 C 
ATOM     10  N3  IDV     1      -2.411  -0.129  -0.279  0.00  0.00    -0.287 NA
ATOM     11  H16 IDV     1      -4.523  -0.970  -1.672  0.00  0.00    +0.045 HD
ATOM     12  H17 IDV     1      -5.203  -2.047  -0.430  0.00  0.00    +0.045 HD
ATOM     13  H18 IDV     1      -4.387   1.310  -1.346  0.00  0.00    +0.044 HD
ATOM     14  H19 IDV     1      -4.955   2.069   0.160  0.00  0.00    +0.044 HD
ATOM     15  H20 IDV     1      -2.502   1.919   0.174  0.00  0.00    +0.044 HD
ATOM     16  H21 IDV     1      -3.181   0.842   1.417  0.00  0.00    +0.044 HD
BRANCH   4  18
ATOM     17  N1  IDV     1      -3.138  -3.746  -0.435  0.00  0.00    -0.309 N 
ATOM     18  C5  IDV     1      -2.566  -2.534  -0.578  0.00  0.00    +0.232 C 
ATOM     19  O1  IDV     1      -1.519  -2.425  -1.182  0.00  0.00    -0.274 OA
ATOM     20  H15 IDV     1      -3.975  -3.834   0.048  0.00  0.00    +0.149 HD
BRANCH  17  21
ATOM     21  C2  IDV     1      -2.495  -4.932  -1.008  0.00  0.00    +0.026 C 
BRANCH  21  22
ATOM     22  C1  IDV     1      -1.104  -5.104  -0.395  0.00  0.00    -0.044 C 
ATOM     23  H6  IDV     1      -0.500  -4.223  -0.611  0.00  0.00    +0.025 HD
ATOM     24  H7  IDV     1      -1.195  -5.227   0.684  0.00  0.00    +0.025 HD
ATOM     25  H8  IDV     1      -0.626  -5.986  -0.821  0.00  0.00    +0.025 HD
ENDBRANCH  21  22
BRANCH  21  26
ATOM     26  C3  IDV     1      -2.367  -4.760  -2.523  0.00  0.00    -0.044 C 
ATOM     27  H9  IDV     1      -1.889  -5.642  -2.949  0.00  0.00    +0.025 HD
ATOM     28  H10 IDV     1      -3.358  -4.637  -2.960  0.00  0.00    +0.025 HD
ATOM     29  H11 IDV     1      -1.763  -3.879  -2.739  0.00  0.00    +0.025 HD
ENDBRANCH  21  26
BRANCH  21  30
ATOM     30  C4  IDV     1      -3.344  -6.168  -0.705  0.00  0.00    -0.044 C 
ATOM     31  H12 IDV     1      -3.435  -6.290   0.375  0.00  0.00    +0.025 HD
ATOM     32  H13 IDV     1      -4.335  -6.045  -1.141  0.00  0.00    +0.025 HD
ATOM     33  H14 IDV     1      -2.866  -7.050  -1.131  0.00  0.00    +0.025 HD
ENDBRANCH  21  30
ENDBRANCH  17  21
ENDBRANCH   4  18
BRANCH   7  34
ATOM     34  C31 IDV     1      -6.565   0.180  -0.691  0.00  0.00    +0.026 C 
ATOM     35  H42 IDV     1      -6.369   0.546  -1.698  0.00  0.00    +0.048 HD
ATOM     36  H43 IDV     1      -7.087  -0.776  -0.747  0.00  0.00    +0.048 HD
BRANCH  34  37
ATOM     37  C32 IDV     1      -7.420   1.176   0.049  0.00  0.00    -0.015 A 
ATOM     38  C33 IDV     1      -7.335   2.529  -0.246  0.00  0.00    -0.054 A 
ATOM     39  C34 IDV     1      -8.141   3.409   0.460  0.00  0.00    -0.043 A 
ATOM     40  C35 IDV     1      -8.995   2.914   1.427  0.00  0.00    +0.028 A 
ATOM     41  N5  IDV     1      -9.049   1.621   1.680  0.00  0.00    -0.263 NA
ATOM     42  C36 IDV     1      -8.302   0.754   1.025  0.00  0.00    +0.032 A 
ATOM     43  H44 IDV     1      -6.658   2.888  -1.007  0.00  0.00    +0.062 HD
ATOM     44  H45 IDV     1      -8.101   4.469   0.257  0.00  0.00    +0.063 HD
ATOM     45  H46 IDV     1      -9.626   3.593   1.981  0.00  0.00    +0.083 HD
ATOM     46  H47 IDV     1      -8.374  -0.298   1.260  0.00  0.00    +0.083 HD
ENDBRANCH  34  37
ENDBRANCH   7  34
ENDBRANCH   1  10
BRANCH   1  47
ATOM     47  C11 IDV     1      -0.144   0.761  -0.022  0.00  0.00    +0.069 C 
ATOM     48  H2  IDV     1      -0.044   0.726  -1.107  0.00  0.00    +0.061 HD
BRANCH  47  49
ATOM     49  C12 IDV     1       1.217   0.501   0.626  0.00  0.00    -0.014 C 
ATOM     50  H24 IDV     1       1.146   0.666   1.701  0.00  0.00    +0.030 HD
ATOM     51  H25 IDV     1       1.519  -0.530   0.436  0.00  0.00    +0.030 HD
BRANCH  49  52
ATOM     52  C13 IDV     1       2.256   1.454   0.031  0.00  0.00    +0.042 C 
ATOM     53  H3  IDV     1       2.237   1.379  -1.056  0.00  0.00    +0.040 HD
BRANCH  52  54
ATOM     54  C21 IDV     1       3.626   1.083   0.537  0.00  0.00    +0.217 C 
ATOM     55  O2  IDV     1       4.011   1.503   1.608  0.00  0.00    -0.275 OA
ATOM     56  N4  IDV     1       4.423   0.285  -0.200  0.00  0.00    -0.306 N 
ATOM     57  H33 IDV     1       4.147   0.010  -1.088  0.00  0.00    +0.149 HD
BRANCH  56  58
ATOM     58  C22 IDV     1       5.708  -0.168   0.340  0.00  0.00    +0.075 C 
ATOM     59  H4  IDV     1       6.126   0.590   1.003  0.00  0.00    +0.057 HD
ATOM     60  C23 IDV     1       5.535  -1.477   1.080  0.00  0.00    -0.022 A 
ATOM     61  C24 IDV     1       5.038  -1.732   2.347  0.00  0.00    -0.056 A 
ATOM     62  C25 IDV     1       4.975  -3.028   2.820  0.00  0.00    -0.061 A 
ATOM     63  C26 IDV     1       5.408  -4.075   2.027  0.00  0.00    -0.061 A 
ATOM     64  C27 IDV     1       5.903  -3.822   0.763  0.00  0.00    -0.058 A 
ATOM     65  C28 IDV     1       5.968  -2.523   0.286  0.00  0.00    -0.040 A 
ATOM     66  C29 IDV     1       6.460  -1.988  -1.042  0.00  0.00    +0.001 C 
ATOM     67  C30 IDV     1       6.692  -0.477  -0.809  0.00  0.00    +0.082 C 
ATOM     68  H5  IDV     1       7.721  -0.285  -0.503  0.00  0.00    +0.062 HD
ATOM     69  H34 IDV     1       4.700  -0.916   2.967  0.00  0.00    +0.062 HD
ATOM     70  H35 IDV     1       4.588  -3.224   3.809  0.00  0.00    +0.062 HD
ATOM     71  H36 IDV     1       5.359  -5.088   2.395  0.00  0.00    +0.062 HD
ATOM     72  H37 IDV     1       6.242  -4.639   0.143  0.00  0.00    +0.062 HD
ATOM     73  H38 IDV     1       7.394  -2.474  -1.322  0.00  0.00    +0.034 HD
ATOM     74  H39 IDV     1       5.706  -2.142  -1.814  0.00  0.00    +0.034 HD
BRANCH  67  75
ATOM     75  O3  IDV     1       6.365   0.274  -1.979  0.00  0.00    -0.389 OA
ATOM     76  H40 IDV     1       6.905  -0.080  -2.699  0.00  0.00    +0.210 HD
ENDBRANCH  67  75
ENDBRANCH  56  58
ENDBRANCH  52  54
BRANCH  52  77
ATOM     77  C14 IDV     1       1.929   2.889   0.449  0.00  0.00    -0.016 C 
ATOM     78  H26 IDV     1       0.917   3.139   0.130  0.00  0.00    +0.032 HD
ATOM     79  H27 IDV     1       2.001   2.977   1.533  0.00  0.00    +0.032 HD
BRANCH  77  80
ATOM     80  C15 IDV     1       2.908   3.835  -0.197  0.00  0.00    -0.047 A 
ATOM     81  C16 IDV     1       2.695   4.272  -1.492  0.00  0.00    -0.059 A 
ATOM     82  C17 IDV     1       3.593   5.140  -2.085  0.00  0.00    -0.062 A 
ATOM     83  C18 IDV     1       4.703   5.572  -1.383  0.00  0.00    -0.062 A 
ATOM     84  C19 IDV     1       4.914   5.137  -0.088  0.00  0.00    -0.062 A 
ATOM     85  C20 IDV     1       4.015   4.272   0.506  0.00  0.00    -0.059 A 
ATOM     86  H28 IDV     1       1.828   3.934  -2.040  0.00  0.00    +0.062 HD
ATOM     87  H29 IDV     1       3.427   5.480  -3.096  0.00  0.00    +0.062 HD
ATOM     88  H30 IDV     1       5.404   6.250  -1.847  0.00  0.00    +0.062 HD
ATOM     89  H31 IDV     1       5.782   5.474   0.460  0.00  0.00    +0.062 HD
ATOM     90  H32 IDV     1       4.180   3.932   1.518  0.00  0.00    +0.062 HD
ENDBRANCH  77  80
ENDBRANCH  52  77
ENDBRANCH  49  52
ENDBRANCH  47  49
BRANCH  47  91
ATOM     91  O4  IDV     1      -0.619   2.051   0.370  0.00  0.00    -0.391 OA
ATOM     92  H41 IDV     1      -0.694   2.041   1.334  0.00  0.00    +0.210 HD
ENDBRANCH  47  91
ENDBRANCH   1  47
TORSDOF 17
