REMARK  Name = Fosamprenavir_FPV.pdb
REMARK  19 active torsions:
REMARK  status: ('A' for Active; 'I' for Inactive)
REMARK    1  A    between atoms: C1_2  and  O2_3
REMARK    2  A    between atoms: O2_3  and  C2_4
REMARK    3  A    between atoms: N1_10  and  C6_11
REMARK    4  A    between atoms: C6_11  and  C7_13
REMARK    5  A    between atoms: C6_11  and  C14_20
REMARK    6  A    between atoms: C7_13  and  C8_14
REMARK    7  A    between atoms: C14_20  and  O4_22
REMARK    8  A    between atoms: C14_20  and  C15_27
REMARK    9  A    between atoms: O4_22  and  P1_23
REMARK   10  A    between atoms: P1_23  and  O6_25
REMARK   11  A    between atoms: P1_23  and  O7_26
REMARK   12  A    between atoms: C15_27  and  N2_28
REMARK   13  A    between atoms: N2_28  and  C16_29
REMARK   14  A    between atoms: N2_28  and  S1_33
REMARK   15  A    between atoms: C16_29  and  C17_30
REMARK   16  A    between atoms: C17_30  and  C18_31
REMARK   17  A    between atoms: C17_30  and  C19_32
REMARK   18  A    between atoms: S1_33  and  C20_36
REMARK   19  A    between atoms: C23_39  and  N3_40
REMARK                            x       y       z     vdW  Elec       q    Type
REMARK                         _______ _______ _______ _____ _____    ______ ____
ROOT
ATOM      1  C14 FPV     1      -0.019   0.549   0.144  0.00  0.00    +0.103 C 
ATOM      2  H3  FPV     1      -0.080   1.072  -0.810  0.00  0.00    +0.063 HD
ENDROOT
BRANCH   1   3
ATOM      3  C15 FPV     1      -1.270  -0.311   0.335  0.00  0.00    +0.049 C 
ATOM      4  H20 FPV     1      -1.326  -1.053  -0.462  0.00  0.00    +0.047 HD
ATOM      5  H21 FPV     1      -1.220  -0.817   1.300  0.00  0.00    +0.047 HD
BRANCH   3   6
ATOM      6  N2  FPV     1      -2.460   0.542   0.293  0.00  0.00    -0.174 NA
BRANCH   6   7
ATOM      7  C16 FPV     1      -2.933   1.201   1.514  0.00  0.00    +0.023 C 
ATOM      8  H22 FPV     1      -2.124   1.791   1.945  0.00  0.00    +0.045 HD
ATOM      9  H23 FPV     1      -3.770   1.856   1.272  0.00  0.00    +0.045 HD
BRANCH   7  10
ATOM     10  C17 FPV     1      -3.387   0.143   2.521  0.00  0.00    -0.032 C 
ATOM     11  H24 FPV     1      -2.577  -0.566   2.693  0.00  0.00    +0.031 HD
BRANCH  10  12
ATOM     12  C18 FPV     1      -3.758   0.823   3.841  0.00  0.00    -0.061 C 
ATOM     13  H25 FPV     1      -4.568   1.532   3.670  0.00  0.00    +0.023 HD
ATOM     14  H26 FPV     1      -4.081   0.069   4.559  0.00  0.00    +0.023 HD
ATOM     15  H27 FPV     1      -2.890   1.351   4.235  0.00  0.00    +0.023 HD
ENDBRANCH  10  12
BRANCH  10  16
ATOM     16  C19 FPV     1      -4.606  -0.598   1.969  0.00  0.00    -0.061 C 
ATOM     17  H28 FPV     1      -5.379   0.122   1.702  0.00  0.00    +0.023 HD
ATOM     18  H29 FPV     1      -4.316  -1.164   1.084  0.00  0.00    +0.023 HD
ATOM     19  H30 FPV     1      -4.990  -1.280   2.727  0.00  0.00    +0.023 HD
ENDBRANCH  10  16
ENDBRANCH   7  10
ENDBRANCH   6   7
BRANCH   6  20
ATOM     20  S1  FPV     1      -3.272   0.762  -1.134  0.00  0.00    +0.061 S 
ATOM     21  O8  FPV     1      -3.934   2.013  -1.013  0.00  0.00    -0.153 OA
ATOM     22  O9  FPV     1      -2.351   0.414  -2.159  0.00  0.00    -0.153 OA
BRANCH  20  23
ATOM     23  C20 FPV     1      -4.549  -0.450  -1.205  0.00  0.00    +0.106 A 
ATOM     24  C21 FPV     1      -5.830  -0.127  -0.798  0.00  0.00    -0.034 A 
ATOM     25  C22 FPV     1      -6.833  -1.075  -0.853  0.00  0.00    -0.039 A 
ATOM     26  C23 FPV     1      -6.554  -2.354  -1.318  0.00  0.00    +0.025 A 
ATOM     27  C24 FPV     1      -5.265  -2.675  -1.727  0.00  0.00    -0.039 A 
ATOM     28  C25 FPV     1      -4.268  -1.721  -1.674  0.00  0.00    -0.034 A 
ATOM     29  H31 FPV     1      -6.047   0.867  -0.437  0.00  0.00    +0.064 HD
ATOM     30  H32 FPV     1      -7.834  -0.822  -0.535  0.00  0.00    +0.064 HD
ATOM     31  H35 FPV     1      -5.045  -3.668  -2.088  0.00  0.00    +0.064 HD
ATOM     32  H36 FPV     1      -3.266  -1.970  -1.992  0.00  0.00    +0.064 HD
BRANCH  26  33
ATOM     33  N3  FPV     1      -7.566  -3.314  -1.376  0.00  0.00    -0.358 N 
ATOM     34  H33 FPV     1      -8.465  -3.089  -1.091  0.00  0.00    +0.142 HD
ATOM     35  H34 FPV     1      -7.370  -4.207  -1.700  0.00  0.00    +0.142 HD
ENDBRANCH  26  33
ENDBRANCH  20  23
ENDBRANCH   6  20
ENDBRANCH   3   6
ENDBRANCH   1   3
BRANCH   1  36
ATOM     36  C6  FPV     1       1.222  -0.346   0.157  0.00  0.00    +0.058 C 
ATOM     37  H2  FPV     1       1.113  -1.128  -0.594  0.00  0.00    +0.053 HD
BRANCH  36  40
ATOM     38  O1  FPV     1       3.501  -1.316  -0.909  0.00  0.00    -0.226 OA
ATOM     39  C1  FPV     1       3.500  -0.123  -0.678  0.00  0.00    +0.401 C 
ATOM     40  N1  FPV     1       2.408   0.460  -0.144  0.00  0.00    -0.275 N 
ATOM     41  H10 FPV     1       2.407   1.412   0.040  0.00  0.00    +0.152 HD
BRANCH  39  42
ATOM     42  O2  FPV     1       4.588   0.618  -0.960  0.00  0.00    -0.445 OA
BRANCH  42  43
ATOM     43  C2  FPV     1       5.762  -0.008  -1.540  0.00  0.00    +0.130 C 
ATOM     44  H1  FPV     1       5.476  -0.871  -2.140  0.00  0.00    +0.076 HD
ATOM     45  C3  FPV     1       6.551   1.009  -2.396  0.00  0.00    +0.010 C 
ATOM     46  C4  FPV     1       7.930   1.091  -1.705  0.00  0.00    +0.051 C 
ATOM     47  O3  FPV     1       8.063  -0.161  -0.996  0.00  0.00    -0.376 OA
ATOM     48  C5  FPV     1       6.757  -0.423  -0.433  0.00  0.00    +0.085 C 
ATOM     49  H4  FPV     1       6.657   0.647  -3.418  0.00  0.00    +0.032 HD
ATOM     50  H5  FPV     1       6.059   1.982  -2.383  0.00  0.00    +0.032 HD
ATOM     51  H6  FPV     1       8.722   1.192  -2.447  0.00  0.00    +0.056 HD
ATOM     52  H7  FPV     1       7.956   1.927  -1.006  0.00  0.00    +0.056 HD
ATOM     53  H8  FPV     1       6.601   0.180   0.461  0.00  0.00    +0.060 HD
ATOM     54  H9  FPV     1       6.650  -1.483  -0.200  0.00  0.00    +0.060 HD
ENDBRANCH  42  43
ENDBRANCH  39  42
ENDBRANCH  36  40
BRANCH  36  55
ATOM     55  C7  FPV     1       1.376  -0.984   1.539  0.00  0.00    -0.007 C 
ATOM     56  H11 FPV     1       1.573  -0.207   2.278  0.00  0.00    +0.033 HD
ATOM     57  H12 FPV     1       0.458  -1.510   1.801  0.00  0.00    +0.033 HD
BRANCH  55  58
ATOM     58  C8  FPV     1       2.525  -1.959   1.517  0.00  0.00    -0.046 A 
ATOM     59  C9  FPV     1       3.802  -1.530   1.827  0.00  0.00    -0.059 A 
ATOM     60  C10 FPV     1       4.856  -2.424   1.806  0.00  0.00    -0.062 A 
ATOM     61  C11 FPV     1       4.633  -3.748   1.476  0.00  0.00    -0.062 A 
ATOM     62  C12 FPV     1       3.356  -4.177   1.166  0.00  0.00    -0.062 A 
ATOM     63  C13 FPV     1       2.301  -3.284   1.191  0.00  0.00    -0.059 A 
ATOM     64  H13 FPV     1       3.976  -0.496   2.085  0.00  0.00    +0.062 HD
ATOM     65  H14 FPV     1       5.853  -2.089   2.048  0.00  0.00    +0.062 HD
ATOM     66  H15 FPV     1       5.456  -4.446   1.459  0.00  0.00    +0.062 HD
ATOM     67  H16 FPV     1       3.181  -5.211   0.908  0.00  0.00    +0.062 HD
ATOM     68  H17 FPV     1       1.303  -3.619   0.949  0.00  0.00    +0.062 HD
ENDBRANCH  55  58
ENDBRANCH  36  55
ENDBRANCH   1  36
BRANCH   1  69
ATOM     69  O4  FPV     1       0.070   1.502   1.205  0.00  0.00    -0.280 OA
BRANCH  69  70
ATOM     70  P1  FPV     1      -0.121   2.957   0.542  0.00  0.00    +0.473 P 
ATOM     71  O5  FPV     1      -1.383   2.984  -0.231  0.00  0.00    -0.228 OA
BRANCH  70  72
ATOM     72  O6  FPV     1      -0.177   4.072   1.701  0.00  0.00    -0.303 OA
ATOM     73  H18 FPV     1      -0.211   4.932   1.260  0.00  0.00    +0.222 HD
ENDBRANCH  70  72
BRANCH  70  74
ATOM     74  O7  FPV     1       1.117   3.265  -0.441  0.00  0.00    -0.303 OA
ATOM     75  H19 FPV     1       1.918   3.237   0.101  0.00  0.00    +0.222 HD
ENDBRANCH  70  74
ENDBRANCH  69  70
ENDBRANCH   1  69
TORSDOF 19
