REMARK  Name = Ritonavir_RTV.pdb
REMARK  24 active torsions:
REMARK  status: ('A' for Active; 'I' for Inactive)
REMARK    1  A    between atoms: C1_1  and  C2_2
REMARK    2  A    between atoms: C2_2  and  C3_3
REMARK    3  A    between atoms: C2_2  and  C4_4
REMARK    4  A    between atoms: C5_6  and  C6_7
REMARK    5  A    between atoms: C6_7  and  N2_8
REMARK    6  A    between atoms: N2_8  and  C7_9
REMARK    7  A    between atoms: N3_12  and  C9_13
REMARK    8  A    between atoms: C9_13  and  C10_15
REMARK    9  A    between atoms: C9_13  and  C13_18
REMARK   10  A    between atoms: C10_15  and  C11_16
REMARK   11  A    between atoms: C10_15  and  C12_17
REMARK   12  A    between atoms: N4_20  and  C14_21
REMARK   13  A    between atoms: C14_21  and  C15_23
REMARK   14  A    between atoms: C14_21  and  C22_30
REMARK   15  A    between atoms: C15_23  and  C16_24
REMARK   16  A    between atoms: C22_30  and  C23_31
REMARK   17  A    between atoms: C23_31  and  O3_33
REMARK   18  A    between atoms: C23_31  and  C24_34
REMARK   19  A    between atoms: C24_34  and  C25_36
REMARK   20  A    between atoms: C24_34  and  N5_43
REMARK   21  A    between atoms: C25_36  and  C26_37
REMARK   22  A    between atoms: C32_44  and  O5_46
REMARK   23  A    between atoms: O5_46  and  C33_47
REMARK   24  A    between atoms: C33_47  and  C34_48
REMARK                            x       y       z     vdW  Elec       q    Type
REMARK                         _______ _______ _______ _____ _____    ______ ____
ROOT
ATOM      1  C14 RTV     1      -0.896  -2.564  -0.455  0.00  0.00    +0.030 C 
ATOM      2  H2  RTV     1      -0.555  -2.867  -1.444  0.00  0.00    +0.050 HD
ENDROOT
BRANCH   1   5
ATOM      3  C13 RTV     1       1.325  -1.575  -0.292  0.00  0.00    +0.234 C 
ATOM      4  O2  RTV     1       1.685  -2.296  -1.199  0.00  0.00    -0.274 OA
ATOM      5  N4  RTV     1       0.038  -1.583   0.105  0.00  0.00    -0.311 N 
ATOM      6  H25 RTV     1      -0.272  -0.938   0.761  0.00  0.00    +0.149 HD
BRANCH   3   7
ATOM      7  C9  RTV     1       2.319  -0.671   0.391  0.00  0.00    +0.103 C 
ATOM      8  H1  RTV     1       2.284  -0.840   1.467  0.00  0.00    +0.060 HD
BRANCH   7  12
ATOM      9  N2  RTV     1       5.983  -0.848   0.161  0.00  0.00    -0.283 N 
ATOM     10  C8  RTV     1       4.741  -0.685   0.659  0.00  0.00    +0.303 C 
ATOM     11  O1  RTV     1       4.591  -0.286   1.797  0.00  0.00    -0.253 OA
ATOM     12  N3  RTV     1       3.666  -0.963  -0.105  0.00  0.00    -0.288 N 
ATOM     13  H17 RTV     1       3.785  -1.356  -0.984  0.00  0.00    +0.151 HD
BRANCH   9  14
ATOM     14  C7  RTV     1       6.165  -1.206  -1.248  0.00  0.00    +0.005 C 
ATOM     15  H14 RTV     1       5.193  -1.381  -1.708  0.00  0.00    +0.043 HD
ATOM     16  H15 RTV     1       6.672  -0.393  -1.767  0.00  0.00    +0.043 HD
ATOM     17  H16 RTV     1       6.768  -2.112  -1.318  0.00  0.00    +0.043 HD
ENDBRANCH   9  14
BRANCH   9  18
ATOM     18  C6  RTV     1       7.150  -0.668   1.028  0.00  0.00    +0.058 C 
ATOM     19  H12 RTV     1       7.961  -1.310   0.684  0.00  0.00    +0.053 HD
ATOM     20  H13 RTV     1       6.886  -0.934   2.052  0.00  0.00    +0.053 HD
BRANCH  18  23
ATOM     21  C4  RTV     1       8.793   2.449  -0.022  0.00  0.00    +0.081 A 
ATOM     22  N1  RTV     1       8.399   1.198   0.031  0.00  0.00    -0.247 NA
ATOM     23  C5  RTV     1       7.593   0.772   0.981  0.00  0.00    +0.066 A 
ATOM     24  C37 RTV     1       7.172   1.660   1.917  0.00  0.00    +0.000 A 
ATOM     25  S2  RTV     1       8.003   3.141   1.361  0.00  0.00    -0.080 S 
ATOM     26  H48 RTV     1       6.519   1.512   2.764  0.00  0.00    +0.071 HD
BRANCH  21  27
ATOM     27  C2  RTV     1       9.703   3.114  -1.023  0.00  0.00    +0.002 C 
ATOM     28  H8  RTV     1      10.027   2.381  -1.762  0.00  0.00    +0.036 HD
BRANCH  27  29
ATOM     29  C1  RTV     1       8.950   4.247  -1.724  0.00  0.00    -0.057 C 
ATOM     30  H5  RTV     1       9.608   4.727  -2.447  0.00  0.00    +0.024 HD
ATOM     31  H6  RTV     1       8.079   3.840  -2.238  0.00  0.00    +0.024 HD
ATOM     32  H7  RTV     1       8.627   4.979  -0.984  0.00  0.00    +0.024 HD
ENDBRANCH  27  29
BRANCH  27  33
ATOM     33  C3  RTV     1      10.926   3.684  -0.301  0.00  0.00    -0.057 C 
ATOM     34  H9  RTV     1      10.602   4.417   0.438  0.00  0.00    +0.024 HD
ATOM     35  H10 RTV     1      11.462   2.877   0.198  0.00  0.00    +0.024 HD
ATOM     36  H11 RTV     1      11.584   4.164  -1.025  0.00  0.00    +0.024 HD
ENDBRANCH  27  33
ENDBRANCH  21  27
ENDBRANCH  18  23
ENDBRANCH   9  18
ENDBRANCH   7  12
BRANCH   7  37
ATOM     37  C10 RTV     1       1.970   0.788   0.092  0.00  0.00    -0.020 C 
ATOM     38  H18 RTV     1       2.757   1.436   0.479  0.00  0.00    +0.032 HD
BRANCH  37  39
ATOM     39  C11 RTV     1       1.846   0.984  -1.420  0.00  0.00    -0.061 C 
ATOM     40  H19 RTV     1       1.060   0.336  -1.807  0.00  0.00    +0.023 HD
ATOM     41  H20 RTV     1       1.598   2.023  -1.633  0.00  0.00    +0.023 HD
ATOM     42  H21 RTV     1       2.793   0.731  -1.898  0.00  0.00    +0.023 HD
ENDBRANCH  37  39
BRANCH  37  43
ATOM     43  C12 RTV     1       0.642   1.142   0.763  0.00  0.00    -0.061 C 
ATOM     44  H22 RTV     1      -0.136   0.466   0.409  0.00  0.00    +0.023 HD
ATOM     45  H23 RTV     1       0.743   1.045   1.844  0.00  0.00    +0.023 HD
ATOM     46  H24 RTV     1       0.371   2.169   0.514  0.00  0.00    +0.023 HD
ENDBRANCH  37  43
ENDBRANCH   7  37
ENDBRANCH   3   7
ENDBRANCH   1   5
BRANCH   1  47
ATOM     47  C15 RTV     1      -0.957  -3.788   0.461  0.00  0.00    -0.009 C 
ATOM     48  H26 RTV     1      -1.212  -3.474   1.472  0.00  0.00    +0.033 HD
ATOM     49  H27 RTV     1      -1.716  -4.479   0.093  0.00  0.00    +0.033 HD
BRANCH  47  50
ATOM     50  C16 RTV     1       0.384  -4.475   0.471  0.00  0.00    -0.046 A 
ATOM     51  C17 RTV     1       1.338  -4.114   1.404  0.00  0.00    -0.059 A 
ATOM     52  C18 RTV     1       2.569  -4.744   1.414  0.00  0.00    -0.062 A 
ATOM     53  C19 RTV     1       2.845  -5.735   0.491  0.00  0.00    -0.062 A 
ATOM     54  C20 RTV     1       1.891  -6.097  -0.441  0.00  0.00    -0.062 A 
ATOM     55  C21 RTV     1       0.659  -5.470  -0.448  0.00  0.00    -0.059 A 
ATOM     56  H28 RTV     1       1.123  -3.339   2.125  0.00  0.00    +0.062 HD
ATOM     57  H29 RTV     1       3.314  -4.461   2.142  0.00  0.00    +0.062 HD
ATOM     58  H30 RTV     1       3.807  -6.227   0.499  0.00  0.00    +0.062 HD
ATOM     59  H31 RTV     1       2.107  -6.872  -1.162  0.00  0.00    +0.062 HD
ATOM     60  H32 RTV     1      -0.087  -5.753  -1.176  0.00  0.00    +0.062 HD
ENDBRANCH  47  50
ENDBRANCH   1  47
BRANCH   1  61
ATOM     61  C22 RTV     1      -2.288  -1.939  -0.564  0.00  0.00    -0.006 C 
ATOM     62  H33 RTV     1      -3.007  -2.703  -0.860  0.00  0.00    +0.031 HD
ATOM     63  H34 RTV     1      -2.577  -1.523   0.401  0.00  0.00    +0.031 HD
BRANCH  61  64
ATOM     64  C23 RTV     1      -2.266  -0.825  -1.613  0.00  0.00    +0.076 C 
ATOM     65  H3  RTV     1      -1.864  -1.215  -2.548  0.00  0.00    +0.061 HD
BRANCH  64  66
ATOM     66  O3  RTV     1      -1.443   0.248  -1.151  0.00  0.00    -0.390 OA
ATOM     67  H35 RTV     1      -1.811   0.539  -0.306  0.00  0.00    +0.210 HD
ENDBRANCH  64  66
BRANCH  64  68
ATOM     68  C24 RTV     1      -3.689  -0.313  -1.843  0.00  0.00    +0.056 C 
ATOM     69  H4  RTV     1      -4.317  -1.132  -2.196  0.00  0.00    +0.053 HD
BRANCH  68  70
ATOM     70  N5  RTV     1      -4.229   0.210  -0.586  0.00  0.00    -0.275 N 
ATOM     71  C32 RTV     1      -5.562   0.246  -0.388  0.00  0.00    +0.401 C 
ATOM     72  O4  RTV     1      -6.316  -0.156  -1.253  0.00  0.00    -0.226 OA
ATOM     73  H43 RTV     1      -3.628   0.531   0.104  0.00  0.00    +0.152 HD
BRANCH  71  74
ATOM     74  O5  RTV     1      -6.058   0.727   0.767  0.00  0.00    -0.445 OA
BRANCH  74  75
ATOM     75  C33 RTV     1      -7.494   0.766   0.980  0.00  0.00    +0.127 C 
ATOM     76  H44 RTV     1      -7.958   1.388   0.215  0.00  0.00    +0.075 HD
ATOM     77  H45 RTV     1      -7.898  -0.245   0.921  0.00  0.00    +0.075 HD
BRANCH  75  78
ATOM     78  C34 RTV     1      -7.785   1.344   2.341  0.00  0.00    +0.046 A 
ATOM     79  C35 RTV     1      -7.988   2.635   2.710  0.00  0.00    +0.041 A 
ATOM     80  N6  RTV     1      -8.227   2.892   3.979  0.00  0.00    -0.255 NA
ATOM     81  C36 RTV     1      -8.272   1.935   4.876  0.00  0.00    +0.065 A 
ATOM     82  S1  RTV     1      -7.965   0.520   3.917  0.00  0.00    -0.077 S 
ATOM     83  H46 RTV     1      -7.953   3.430   1.981  0.00  0.00    +0.084 HD
ATOM     84  H47 RTV     1      -8.457   2.008   5.937  0.00  0.00    +0.091 HD
ENDBRANCH  75  78
ENDBRANCH  74  75
ENDBRANCH  71  74
ENDBRANCH  68  70
BRANCH  68  85
ATOM     85  C25 RTV     1      -3.667   0.800  -2.892  0.00  0.00    -0.007 C 
ATOM     86  H36 RTV     1      -3.113   1.655  -2.503  0.00  0.00    +0.033 HD
ATOM     87  H37 RTV     1      -3.184   0.436  -3.799  0.00  0.00    +0.033 HD
BRANCH  85  88
ATOM     88  C26 RTV     1      -5.080   1.220  -3.209  0.00  0.00    -0.046 A 
ATOM     89  C27 RTV     1      -5.679   2.232  -2.483  0.00  0.00    -0.059 A 
ATOM     90  C28 RTV     1      -6.975   2.617  -2.774  0.00  0.00    -0.062 A 
ATOM     91  C29 RTV     1      -7.670   1.990  -3.791  0.00  0.00    -0.062 A 
ATOM     92  C30 RTV     1      -7.070   0.979  -4.517  0.00  0.00    -0.062 A 
ATOM     93  C31 RTV     1      -5.773   0.597  -4.229  0.00  0.00    -0.059 A 
ATOM     94  H38 RTV     1      -5.136   2.722  -1.688  0.00  0.00    +0.062 HD
ATOM     95  H39 RTV     1      -7.444   3.407  -2.206  0.00  0.00    +0.062 HD
ATOM     96  H40 RTV     1      -8.683   2.290  -4.017  0.00  0.00    +0.062 HD
ATOM     97  H41 RTV     1      -7.614   0.488  -5.312  0.00  0.00    +0.062 HD
ATOM     98  H42 RTV     1      -5.304  -0.194  -4.797  0.00  0.00    +0.062 HD
ENDBRANCH  85  88
ENDBRANCH  68  85
ENDBRANCH  64  68
ENDBRANCH  61  64
ENDBRANCH   1  61
TORSDOF 24
