REMARK  Name = Dolutegravir_DTG.pdb
REMARK  5 active torsions:
REMARK  status: ('A' for Active; 'I' for Inactive)
REMARK    1  A    between atoms: O3_5  and  C10_20
REMARK    2  A    between atoms: N3_10  and  C14_24
REMARK    3  A    between atoms: C2_12  and  C8_18
REMARK    4  A    between atoms: C11_21  and  C13_23
REMARK    5  A    between atoms: C14_24  and  C15_25
REMARK                            x       y       z     vdW  Elec       q    Type
REMARK                         _______ _______ _______ _____ _____    ______ ____
ROOT
ATOM      1  O1  UNL     1       5.400  -2.059  -0.179  0.00  0.00    -0.357 OA
ATOM      2  O2  UNL     1       3.904   2.358   0.394  0.00  0.00    -0.268 OA
ATOM      3  O4  UNL     1      -1.147   1.731   0.486  0.00  0.00    -0.283 OA
ATOM      4  N1  UNL     1       4.632   0.224  -0.136  0.00  0.00    -0.266 N 
ATOM      5  N2  UNL     1       2.061  -0.746   0.485  0.00  0.00    -0.335 N 
ATOM      6  C1  UNL     1       4.290  -1.179  -0.394  0.00  0.00    +0.145 C 
ATOM      7  C2  UNL     1       5.943   0.714  -0.598  0.00  0.00    +0.028 C 
ATOM      8  C3  UNL     1       7.035  -0.339  -0.407  0.00  0.00    -0.011 C 
ATOM      9  C4  UNL     1       3.204  -1.644   0.562  0.00  0.00    +0.067 C 
ATOM     10  C5  UNL     1       6.567  -1.693  -0.903  0.00  0.00    +0.052 C 
ATOM     11  C6  UNL     1       3.655   1.164   0.221  0.00  0.00    +0.269 C 
ATOM     12  C7  UNL     1       2.247   0.634   0.366  0.00  0.00    +0.151 A 
ATOM     13  C9  UNL     1       0.772  -1.240   0.630  0.00  0.00    +0.021 A 
ATOM     14  C10 UNL     1       1.217   1.509   0.358  0.00  0.00    +0.194 A 
ATOM     15  C11 UNL     1      -0.338  -0.492   0.641  0.00  0.00    +0.103 A 
ATOM     16  C12 UNL     1      -0.178   0.978   0.494  0.00  0.00    +0.236 A 
ATOM     17  H1  UNL     1       3.954  -1.260  -1.436  0.00  0.00    +0.083 HD
ATOM     18  H2  UNL     1       6.209   1.592   0.005  0.00  0.00    +0.050 HD
ATOM     19  H3  UNL     1       7.248  -0.418   0.667  0.00  0.00    +0.031 HD
ATOM     20  H4  UNL     1       7.964  -0.042  -0.905  0.00  0.00    +0.031 HD
ATOM     21  H5  UNL     1       2.929  -2.678   0.316  0.00  0.00    +0.053 HD
ATOM     22  H6  UNL     1       3.581  -1.666   1.594  0.00  0.00    +0.053 HD
ATOM     23  H7  UNL     1       6.360  -1.703  -1.979  0.00  0.00    +0.056 HD
ATOM     24  H8  UNL     1       7.334  -2.449  -0.706  0.00  0.00    +0.056 HD
ATOM     25  H12 UNL     1       0.739  -2.319   0.744  0.00  0.00    +0.082 HD
ENDROOT
BRANCH  15  28
ATOM     26  O5  UNL     1      -1.810  -2.305   0.388  0.00  0.00    -0.270 OA
ATOM     27  N3  UNL     1      -2.574  -0.367   1.435  0.00  0.00    -0.307 N 
ATOM     28  C13 UNL     1      -1.631  -1.157   0.798  0.00  0.00    +0.250 C 
ATOM     29  H14 UNL     1      -2.324   0.568   1.745  0.00  0.00    +0.149 HD
BRANCH  27  30
ATOM     30  C14 UNL     1      -3.926  -0.800   1.705  0.00  0.00    +0.040 C 
ATOM     31  H15 UNL     1      -4.269  -0.281   2.608  0.00  0.00    +0.051 HD
ATOM     32  H16 UNL     1      -3.916  -1.872   1.936  0.00  0.00    +0.051 HD
BRANCH  30  35
ATOM     33  F1  UNL     1      -4.897   1.795   1.132  0.00  0.00    -0.205 F 
ATOM     34  F2  UNL     1      -7.392   0.290  -2.596  0.00  0.00    -0.205 F 
ATOM     35  C15 UNL     1      -4.850  -0.508   0.559  0.00  0.00    +0.005 A 
ATOM     36  C16 UNL     1      -5.292   0.796   0.332  0.00  0.00    +0.131 A 
ATOM     37  C17 UNL     1      -5.266  -1.542  -0.280  0.00  0.00    -0.052 A 
ATOM     38  C18 UNL     1      -6.151   1.065  -0.734  0.00  0.00    +0.009 A 
ATOM     39  C19 UNL     1      -6.125  -1.272  -1.346  0.00  0.00    -0.026 A 
ATOM     40  C20 UNL     1      -6.568   0.031  -1.573  0.00  0.00    +0.126 A 
ATOM     41  H17 UNL     1      -4.928  -2.561  -0.117  0.00  0.00    +0.062 HD
ATOM     42  H18 UNL     1      -6.495   2.080  -0.911  0.00  0.00    +0.067 HD
ATOM     43  H19 UNL     1      -6.449  -2.077  -2.000  0.00  0.00    +0.065 HD
ENDBRANCH  30  35
ENDBRANCH  27  30
ENDBRANCH  15  28
BRANCH   7  44
ATOM     44  C8  UNL     1       5.858   1.182  -2.056  0.00  0.00    -0.046 C 
ATOM     45  H9  UNL     1       5.133   1.996  -2.163  0.00  0.00    +0.025 HD
ATOM     46  H10 UNL     1       6.828   1.552  -2.403  0.00  0.00    +0.025 HD
ATOM     47  H11 UNL     1       5.540   0.376  -2.725  0.00  0.00    +0.025 HD
ENDBRANCH   7  44
BRANCH  14  48
ATOM     48  O3  UNL     1       1.360   2.871   0.216  0.00  0.00    -0.502 OA
ATOM     49  H13 UNL     1       2.292   3.095   0.076  0.00  0.00    +0.292 HD
ENDBRANCH  14  48
TORSDOF 5
