REMARK  Name = Bictegravir_BIC.pdb
REMARK  4 active torsions:
REMARK  status: ('A' for Active; 'I' for Inactive)
REMARK    1  A    between atoms: C5_5  and  C7_8
REMARK    2  A    between atoms: C7_8  and  N1_9
REMARK    3  A    between atoms: C8_10  and  C9_12
REMARK    4  A    between atoms: C12_16  and  O3_19
REMARK                            x       y       z     vdW  Elec       q    Type
REMARK                         _______ _______ _______ _____ _____    ______ ____
ROOT
ATOM      1  C9  BIC     1      -0.128   0.829  -0.199  0.00  0.00    +0.103 A 
ATOM      2  C10 BIC     1       1.083   1.490  -0.171  0.00  0.00    +0.021 A 
ATOM      3  N2  BIC     1       2.252   0.832  -0.155  0.00  0.00    -0.335 N 
ATOM      4  C11 BIC     1       2.329  -0.538  -0.158  0.00  0.00    +0.151 A 
ATOM      5  C12 BIC     1       1.194  -1.304  -0.186  0.00  0.00    +0.194 A 
ATOM      6  C13 BIC     1      -0.118  -0.640  -0.203  0.00  0.00    +0.236 A 
ATOM      7  O2  BIC     1      -1.155  -1.282  -0.230  0.00  0.00    -0.283 OA
ATOM      8  C14 BIC     1       3.631  -1.236  -0.129  0.00  0.00    +0.269 C 
ATOM      9  O4  BIC     1       3.645  -2.452  -0.137  0.00  0.00    -0.268 OA
ATOM     10  N3  BIC     1       4.790  -0.579  -0.095  0.00  0.00    -0.266 N 
ATOM     11  C15 BIC     1       6.087  -1.290  -0.008  0.00  0.00    +0.031 C 
ATOM     12  H1  BIC     1       6.016  -2.376  -0.072  0.00  0.00    +0.050 HD
ATOM     13  C16 BIC     1       6.967  -0.631  -1.107  0.00  0.00    -0.032 C 
ATOM     14  C17 BIC     1       7.413   0.720  -0.516  0.00  0.00    -0.025 C 
ATOM     15  C18 BIC     1       6.887   0.758   0.933  0.00  0.00    +0.063 C 
ATOM     16  H2  BIC     1       7.587   1.262   1.600  0.00  0.00    +0.060 HD
ATOM     17  C19 BIC     1       6.714  -0.752   1.315  0.00  0.00    -0.008 C 
ATOM     18  O5  BIC     1       5.602   1.383   0.956  0.00  0.00    -0.354 OA
ATOM     19  C20 BIC     1       4.833   0.889  -0.137  0.00  0.00    +0.146 C 
ATOM     20  H3  BIC     1       5.367   1.150  -1.050  0.00  0.00    +0.083 HD
ATOM     21  C21 BIC     1       3.490   1.633  -0.138  0.00  0.00    +0.067 C 
ATOM     22  H9  BIC     1       1.089   2.570  -0.161  0.00  0.00    +0.082 HD
ATOM     23  H11 BIC     1       7.835  -1.255  -1.320  0.00  0.00    +0.028 HD
ATOM     24  H12 BIC     1       6.383  -0.473  -2.013  0.00  0.00    +0.028 HD
ATOM     25  H13 BIC     1       8.501   0.789  -0.521  0.00  0.00    +0.029 HD
ATOM     26  H14 BIC     1       6.984   1.540  -1.092  0.00  0.00    +0.029 HD
ATOM     27  H15 BIC     1       6.038  -0.870   2.161  0.00  0.00    +0.031 HD
ATOM     28  H16 BIC     1       7.678  -1.221   1.514  0.00  0.00    +0.031 HD
ATOM     29  H17 BIC     1       3.461   2.264  -1.026  0.00  0.00    +0.053 HD
ATOM     30  H18 BIC     1       3.475   2.291   0.731  0.00  0.00    +0.053 HD
ENDROOT
BRANCH   1  32
ATOM     31  N1  BIC     1      -2.569   0.916  -0.130  0.00  0.00    -0.307 N 
ATOM     32  C8  BIC     1      -1.397   1.576  -0.217  0.00  0.00    +0.250 C 
ATOM     33  O1  BIC     1      -1.388   2.788  -0.312  0.00  0.00    -0.270 OA
ATOM     34  H8  BIC     1      -2.581  -0.054  -0.129  0.00  0.00    +0.149 HD
BRANCH  31  35
ATOM     35  C7  BIC     1      -3.826   1.664  -0.036  0.00  0.00    +0.043 C 
ATOM     36  H6  BIC     1      -3.942   2.291  -0.919  0.00  0.00    +0.051 HD
ATOM     37  H7  BIC     1      -3.809   2.291   0.856  0.00  0.00    +0.051 HD
BRANCH  35  42
ATOM     38  C1  BIC     1      -6.661  -0.630  -1.026  0.00  0.00    +0.009 A 
ATOM     39  C2  BIC     1      -7.101  -1.074   0.209  0.00  0.00    +0.129 A 
ATOM     40  C3  BIC     1      -6.481  -0.632   1.365  0.00  0.00    +0.009 A 
ATOM     41  C4  BIC     1      -5.420   0.255   1.286  0.00  0.00    +0.134 A 
ATOM     42  C5  BIC     1      -4.980   0.698   0.050  0.00  0.00    +0.040 A 
ATOM     43  C6  BIC     1      -5.600   0.257  -1.105  0.00  0.00    +0.134 A 
ATOM     44  F1  BIC     1      -5.171   0.690  -2.311  0.00  0.00    -0.205 F 
ATOM     45  F2  BIC     1      -4.815   0.687   2.414  0.00  0.00    -0.205 F 
ATOM     46  F3  BIC     1      -8.136  -1.938   0.286  0.00  0.00    -0.205 F 
ATOM     47  H4  BIC     1      -7.142  -0.978  -1.928  0.00  0.00    +0.067 HD
ATOM     48  H5  BIC     1      -6.824  -0.978   2.328  0.00  0.00    +0.067 HD
ENDBRANCH  35  42
ENDBRANCH  31  35
ENDBRANCH   1  32
BRANCH   5  49
ATOM     49  O3  BIC     1       1.278  -2.657  -0.193  0.00  0.00    -0.502 OA
ATOM     50  H10 BIC     1       0.372  -2.994  -0.213  0.00  0.00    +0.292 HD
ENDBRANCH   5  49
TORSDOF 4
