REMARK  Name = Cabotegravir_CAB.pdb
REMARK  5 active torsions:
REMARK  status: ('A' for Active; 'I' for Inactive)
REMARK    1  A    between atoms: C1_1  and  C2_2
REMARK    2  A    between atoms: C7_12  and  O5_31
REMARK    3  A    between atoms: C9_15  and  C12_19
REMARK    4  A    between atoms: N3_21  and  C13_22
REMARK    5  A    between atoms: C13_22  and  C14_23
REMARK                            x       y       z     vdW  Elec       q    Type
REMARK                         _______ _______ _______ _____ _____    ______ ____
ROOT
ATOM      1  C2  CAB     1       6.354   0.629   0.019  0.00  0.00    +0.049 C 
ATOM      2  H1  CAB     1       6.719   0.620  -1.008  0.00  0.00    +0.052 HD
ATOM      3  C3  CAB     1       6.955  -0.554   0.822  0.00  0.00    +0.068 C 
ATOM      4  O1  CAB     1       6.021  -1.631   0.546  0.00  0.00    -0.355 OA
ATOM      5  C4  CAB     1       4.734  -1.001   0.585  0.00  0.00    +0.146 C 
ATOM      6  H2  CAB     1       4.360  -0.968   1.608  0.00  0.00    +0.083 HD
ATOM      7  N1  CAB     1       4.912   0.371   0.056  0.00  0.00    -0.264 N 
ATOM      8  C5  CAB     1       3.879   1.131  -0.354  0.00  0.00    +0.269 C 
ATOM      9  O2  CAB     1       4.023   2.290  -0.693  0.00  0.00    -0.268 OA
ATOM     10  C6  CAB     1       2.550   0.462  -0.368  0.00  0.00    +0.151 A 
ATOM     11  C7  CAB     1       1.423   1.229  -0.397  0.00  0.00    +0.194 A 
ATOM     12  C8  CAB     1       0.112   0.560  -0.405  0.00  0.00    +0.236 A 
ATOM     13  O3  CAB     1      -0.927   1.199  -0.435  0.00  0.00    -0.283 OA
ATOM     14  C9  CAB     1       0.107  -0.908  -0.376  0.00  0.00    +0.103 A 
ATOM     15  C10 CAB     1       1.318  -1.570  -0.348  0.00  0.00    +0.021 A 
ATOM     16  N2  CAB     1       2.486  -0.913  -0.350  0.00  0.00    -0.335 N 
ATOM     17  C11 CAB     1       3.729  -1.713  -0.325  0.00  0.00    +0.067 C 
ATOM     18  H6  CAB     1       7.951  -0.803   0.457  0.00  0.00    +0.058 HD
ATOM     19  H7  CAB     1       6.978  -0.326   1.888  0.00  0.00    +0.058 HD
ATOM     20  H8  CAB     1       1.324  -2.650  -0.325  0.00  0.00    +0.082 HD
ATOM     21  H9  CAB     1       4.141  -1.785  -1.331  0.00  0.00    +0.053 HD
ATOM     22  H10 CAB     1       3.517  -2.711   0.058  0.00  0.00    +0.053 HD
ENDROOT
BRANCH   1  23
ATOM     23  C1  CAB     1       6.681   1.961   0.695  0.00  0.00    -0.044 C 
ATOM     24  H3  CAB     1       7.761   2.115   0.691  0.00  0.00    +0.025 HD
ATOM     25  H4  CAB     1       6.197   2.773   0.152  0.00  0.00    +0.025 HD
ATOM     26  H5  CAB     1       6.320   1.946   1.723  0.00  0.00    +0.025 HD
ENDBRANCH   1  23
BRANCH  14  27
ATOM     27  C12 CAB     1      -1.161  -1.657  -0.375  0.00  0.00    +0.250 C 
ATOM     28  O4  CAB     1      -1.151  -2.870  -0.455  0.00  0.00    -0.270 OA
ATOM     29  N3  CAB     1      -2.333  -0.997  -0.286  0.00  0.00    -0.307 N 
ATOM     30  H11 CAB     1      -2.346  -0.028  -0.298  0.00  0.00    +0.149 HD
BRANCH  29  31
ATOM     31  C13 CAB     1      -3.588  -1.745  -0.173  0.00  0.00    +0.040 C 
ATOM     32  H12 CAB     1      -3.711  -2.384  -1.048  0.00  0.00    +0.051 HD
ATOM     33  H13 CAB     1      -3.564  -2.361   0.725  0.00  0.00    +0.051 HD
BRANCH  31  34
ATOM     34  C14 CAB     1      -4.742  -0.780  -0.090  0.00  0.00    +0.005 A 
ATOM     35  C15 CAB     1      -5.565  -0.590  -1.185  0.00  0.00    -0.052 A 
ATOM     36  C16 CAB     1      -6.623   0.295  -1.110  0.00  0.00    -0.026 A 
ATOM     37  C17 CAB     1      -6.862   0.992   0.063  0.00  0.00    +0.126 A 
ATOM     38  C18 CAB     1      -6.040   0.802   1.160  0.00  0.00    +0.009 A 
ATOM     39  C19 CAB     1      -4.983  -0.089   1.085  0.00  0.00    +0.131 A 
ATOM     40  F1  CAB     1      -4.179  -0.275   2.155  0.00  0.00    -0.205 F 
ATOM     41  F2  CAB     1      -7.898   1.857   0.136  0.00  0.00    -0.205 F 
ATOM     42  H14 CAB     1      -5.379  -1.133  -2.100  0.00  0.00    +0.062 HD
ATOM     43  H15 CAB     1      -7.265   0.443  -1.966  0.00  0.00    +0.065 HD
ATOM     44  H16 CAB     1      -6.226   1.345   2.075  0.00  0.00    +0.067 HD
ENDBRANCH  31  34
ENDBRANCH  29  31
ENDBRANCH  14  27
BRANCH  11  45
ATOM     45  O5  CAB     1       1.509   2.582  -0.419  0.00  0.00    -0.502 OA
ATOM     46  H17 CAB     1       0.603   2.919  -0.438  0.00  0.00    +0.292 HD
ENDBRANCH  11  45
TORSDOF 5
