REMARK  Name = Raltegravir_RAL.pdb
REMARK  11 active torsions:
REMARK  status: ('A' for Active; 'I' for Inactive)
REMARK    1  A    between atoms: O1_2  and  C8_20
REMARK    2  A    between atoms: N1_7  and  C1_13
REMARK    3  A    between atoms: N2_8  and  C7_19
REMARK    4  A    between atoms: N4_10  and  C12_24
REMARK    5  A    between atoms: C1_13  and  C2_14
REMARK    6  A    between atoms: C1_13  and  C3_15
REMARK    7  A    between atoms: C1_13  and  C4_16
REMARK    8  A    between atoms: C6_18  and  C10_22
REMARK    9  A    between atoms: C9_21  and  C11_23
REMARK   10  A    between atoms: C12_24  and  C13_25
REMARK   11  A    between atoms: C16_28  and  C20_32
REMARK                            x       y       z     vdW  Elec       q    Type
REMARK                         _______ _______ _______ _____ _____    ______ ____
ROOT
ATOM      1  O2  UNL     1      -1.113  -4.407  -1.238  0.00  0.00    -0.264 OA
ATOM      2  N2  UNL     1      -1.368  -2.510   0.110  0.00  0.00    -0.295 N 
ATOM      3  N3  UNL     1       0.533  -1.164   0.586  0.00  0.00    -0.223 NA
ATOM      4  C2  UNL     1      -0.733  -1.422   0.704  0.00  0.00    +0.136 A 
ATOM      5  C5  UNL     1      -0.650  -3.417  -0.674  0.00  0.00    +0.296 A 
ATOM      6  C6  UNL     1       1.274  -2.026  -0.175  0.00  0.00    +0.174 A 
ATOM      7  C8  UNL     1       0.801  -3.111  -0.804  0.00  0.00    +0.213 A 
ENDROOT
BRANCH   6  10
ATOM      8  O5  UNL     1       3.334  -2.023  -1.303  0.00  0.00    -0.268 OA
ATOM      9  N4  UNL     1       3.206  -1.062   0.817  0.00  0.00    -0.306 N 
ATOM     10  C10 UNL     1       2.705  -1.712  -0.295  0.00  0.00    +0.267 C 
ATOM     11  H11 UNL     1       2.582  -0.844   1.590  0.00  0.00    +0.149 HD
BRANCH   9  12
ATOM     12  C12 UNL     1       4.586  -0.649   0.938  0.00  0.00    +0.037 C 
ATOM     13  H12 UNL     1       5.227  -1.365   0.410  0.00  0.00    +0.051 HD
ATOM     14  H13 UNL     1       4.855  -0.704   1.999  0.00  0.00    +0.051 HD
BRANCH  12  16
ATOM     15  F1  UNL     1       5.412   4.555  -1.046  0.00  0.00    -0.205 F 
ATOM     16  C13 UNL     1       4.806   0.739   0.409  0.00  0.00    -0.030 A 
ATOM     17  C14 UNL     1       5.140   0.929  -0.932  0.00  0.00    -0.054 A 
ATOM     18  C15 UNL     1       4.677   1.838   1.258  0.00  0.00    -0.054 A 
ATOM     19  C17 UNL     1       5.345   2.218  -1.423  0.00  0.00    -0.026 A 
ATOM     20  C18 UNL     1       4.882   3.127   0.767  0.00  0.00    -0.026 A 
ATOM     21  C19 UNL     1       5.216   3.317  -0.574  0.00  0.00    +0.123 A 
ATOM     22  H15 UNL     1       5.247   0.082  -1.604  0.00  0.00    +0.062 HD
ATOM     23  H16 UNL     1       4.415   1.703   2.305  0.00  0.00    +0.062 HD
ATOM     24  H17 UNL     1       5.605   2.366  -2.467  0.00  0.00    +0.065 HD
ATOM     25  H18 UNL     1       4.780   3.983   1.427  0.00  0.00    +0.065 HD
ENDBRANCH  12  16
ENDBRANCH   9  12
ENDBRANCH   6  10
BRANCH   2  26
ATOM     26  C7  UNL     1      -2.803  -2.704   0.309  0.00  0.00    +0.017 C 
ATOM     27  H8  UNL     1      -3.470  -1.855   0.235  0.00  0.00    +0.046 HD
ATOM     28  H9  UNL     1      -3.164  -3.389  -0.469  0.00  0.00    +0.046 HD
ATOM     29  H10 UNL     1      -2.954  -3.251   1.244  0.00  0.00    +0.046 HD
ENDBRANCH   2  26
BRANCH   7  30
ATOM     30  O1  UNL     1       1.581  -3.955  -1.561  0.00  0.00    -0.501 OA
ATOM     31  H14 UNL     1       1.003  -4.658  -1.905  0.00  0.00    +0.292 HD
ENDBRANCH   7  30
BRANCH   4  32
ATOM     32  C1  UNL     1      -1.567  -0.480   1.539  0.00  0.00    +0.087 C 
BRANCH  32  34
ATOM     33  O3  UNL     1      -3.594   1.486   2.057  0.00  0.00    -0.265 OA
ATOM     34  N1  UNL     1      -2.526   0.035   0.596  0.00  0.00    -0.295 N 
ATOM     35  C9  UNL     1      -3.473   0.990   0.939  0.00  0.00    +0.301 C 
ATOM     36  H7  UNL     1      -2.447  -0.215  -0.388  0.00  0.00    +0.150 HD
BRANCH  35  40
ATOM     37  O4  UNL     1      -5.369   2.330   0.107  0.00  0.00    -0.417 OA
ATOM     38  N5  UNL     1      -4.419   0.947  -1.373  0.00  0.00    -0.102 NA
ATOM     39  N6  UNL     1      -5.453   1.609  -2.009  0.00  0.00    -0.112 NA
ATOM     40  C11 UNL     1      -4.407   1.399  -0.141  0.00  0.00    +0.304 A 
ATOM     41  C16 UNL     1      -5.978   2.405  -1.108  0.00  0.00    +0.215 A 
BRANCH  41  42
ATOM     42  C20 UNL     1      -7.103   3.341  -1.227  0.00  0.00    +0.014 C 
ATOM     43  H19 UNL     1      -7.901   3.075  -0.527  0.00  0.00    +0.032 HD
ATOM     44  H20 UNL     1      -6.778   4.363  -1.011  0.00  0.00    +0.032 HD
ATOM     45  H21 UNL     1      -7.518   3.322  -2.239  0.00  0.00    +0.032 HD
ENDBRANCH  41  42
ENDBRANCH  35  40
ENDBRANCH  32  34
BRANCH  32  46
ATOM     46  C3  UNL     1      -2.255  -1.254   2.655  0.00  0.00    -0.037 C 
ATOM     47  H1  UNL     1      -2.291  -0.647   3.570  0.00  0.00    +0.025 HD
ATOM     48  H2  UNL     1      -3.305  -1.497   2.461  0.00  0.00    +0.025 HD
ATOM     49  H3  UNL     1      -1.716  -2.167   2.931  0.00  0.00    +0.025 HD
ENDBRANCH  32  46
BRANCH  32  50
ATOM     50  C4  UNL     1      -0.688   0.633   2.093  0.00  0.00    -0.037 C 
ATOM     51  H4  UNL     1      -1.246   1.331   2.725  0.00  0.00    +0.025 HD
ATOM     52  H5  UNL     1       0.122   0.235   2.717  0.00  0.00    +0.025 HD
ATOM     53  H6  UNL     1      -0.232   1.231   1.294  0.00  0.00    +0.025 HD
ENDBRANCH  32  50
ENDBRANCH   4  32
TORSDOF 11
