REMARK  Name = Zidovudine_AZT_TriPO3.pdb
REMARK  10 active torsions:
REMARK  status: ('A' for Active; 'I' for Inactive)
REMARK    1  A    between atoms: P1_2  and  O4_4
REMARK    2  A    between atoms: P1_2  and  O12_14
REMARK    3  A    between atoms: O4_4  and  P2_5
REMARK    4  A    between atoms: P2_5  and  O7_8
REMARK    5  A    between atoms: O7_8  and  P3_9
REMARK    6  A    between atoms: O12_14  and  C5_26
REMARK    7  A    between atoms: N1_17  and  C2_23
REMARK    8  A    between atoms: N2_18  and  C1_22
REMARK    9  A    between atoms: C4_25  and  C5_26
REMARK   10  A    between atoms: C8_29  and  C10_31
REMARK                            x       y       z     vdW  Elec       q    Type
REMARK                         _______ _______ _______ _____ _____    ______ ____
ROOT
ATOM      1  O11 UNL     1      -0.924  -1.391  -0.171  0.00  0.00    -0.349 OA
ATOM      2  C1  UNL     1      -0.902  -3.733  -0.529  0.00  0.00    +0.117 C 
ATOM      3  C2  UNL     1      -2.254  -1.870  -0.043  0.00  0.00    +0.142 C 
ATOM      4  C3  UNL     1      -2.321  -3.243  -0.711  0.00  0.00    +0.020 C 
ATOM      5  C4  UNL     1      -0.147  -2.426  -0.749  0.00  0.00    +0.110 C 
ATOM      6  H1  UNL     1      -0.618  -4.544  -1.235  0.00  0.00    +0.060 HD
ATOM      7  H2  UNL     1      -2.446  -2.005   1.046  0.00  0.00    +0.084 HD
ATOM      8  H32 UNL     1      -2.496  -3.102  -1.795  0.00  0.00    +0.033 HD
ATOM      9  H33 UNL     1      -3.133  -3.911  -0.349  0.00  0.00    +0.033 HD
ATOM     10  H4  UNL     1       0.845  -2.474  -0.252  0.00  0.00    +0.064 HD
ENDROOT
BRANCH   3  13
ATOM     11  O3  UNL     1      -4.832  -1.285   0.863  0.00  0.00    -0.246 OA
ATOM     12  O14 UNL     1      -5.671   1.759  -2.321  0.00  0.00    -0.267 OA
ATOM     13  N1  UNL     1      -3.203  -0.909  -0.656  0.00  0.00    -0.274 N 
ATOM     14  N3  UNL     1      -5.295   0.238  -0.716  0.00  0.00    -0.275 N 
ATOM     15  C6  UNL     1      -2.818  -0.208  -1.767  0.00  0.00    +0.020 A 
ATOM     16  C7  UNL     1      -4.456  -0.678  -0.126  0.00  0.00    +0.331 A 
ATOM     17  C8  UNL     1      -3.641   0.735  -2.374  0.00  0.00    +0.030 A 
ATOM     18  C9  UNL     1      -4.909   0.947  -1.825  0.00  0.00    +0.257 A 
ATOM     19  HN3 UNL     1      -6.244   0.403  -0.309  0.00  0.00    +0.173 HD
ATOM     20  H6  UNL     1      -1.853  -0.355  -2.199  0.00  0.00    +0.082 HD
BRANCH  17  21
ATOM     21  C10 UNL     1      -3.124   1.481  -3.579  0.00  0.00    -0.033 C 
ATOM     22 H101 UNL     1      -3.863   2.202  -3.981  0.00  0.00    +0.028 HD
ATOM     23 H102 UNL     1      -2.206   2.045  -3.301  0.00  0.00    +0.028 HD
ATOM     24 H103 UNL     1      -2.862   0.761  -4.383  0.00  0.00    +0.028 HD
ENDBRANCH  17  21
ENDBRANCH   3  13
BRANCH   2  25
ATOM     25  N2  UNL     1      -0.660  -4.192   0.820  0.00  0.00    -0.104 NA
ATOM     26  N4  UNL     1       0.145  -5.090   1.007  0.00  0.00    -0.167 NA
ATOM     27  N5  UNL     1       0.883  -5.917   1.179  0.00  0.00    +0.068 NA
ENDBRANCH   2  25
BRANCH   5  28
ATOM     28  C5  UNL     1       0.108  -2.156  -2.251  0.00  0.00    +0.088 C 
ATOM     29  H52 UNL     1      -0.796  -2.366  -2.850  0.00  0.00    +0.059 HD
ATOM     30  H53 UNL     1       0.870  -2.860  -2.657  0.00  0.00    +0.059 HD
BRANCH  28  31
ATOM     31  O12 UNL     1       0.408  -0.803  -2.502  0.00  0.00    -0.282 OA
BRANCH  31  33
ATOM     32  O1  TPO     1       2.360   0.924  -2.667  0.00  0.00    -0.224 OA
ATOM     33  P1  TPO     1       2.043  -0.462  -2.047  0.00  0.00    +0.513 P 
ATOM     34  O2  TPO     1       2.201  -0.302  -0.322  0.00  0.00    -0.116 OA
BRANCH  33  35
ATOM     35  O4  TPO     1       3.115  -1.608  -2.798  0.00  0.00    -0.183 OA
BRANCH  35  36
ATOM     36  P2  TPO     1       4.524  -1.736  -1.793  0.00  0.00    +0.522 P 
ATOM     37  O5  TPO     1       4.881  -0.306  -1.301  0.00  0.00    -0.224 OA
ATOM     38  O6  TPO     1       4.201  -2.740  -0.411  0.00  0.00    -0.116 OA
BRANCH  36  39
ATOM     39  O7  TPO     1       5.840  -2.318  -2.777  0.00  0.00    -0.181 OA
BRANCH  39  40
ATOM     40  P3  TPO     1       7.297  -2.068  -1.862  0.00  0.00    +0.540 P 
ATOM     41  O8  TPO     1       7.538  -0.407  -1.416  0.00  0.00    -0.114 OA
ATOM     42  O9  TPO     1       7.388  -3.138  -0.501  0.00  0.00    -0.114 OA
ATOM     43  O10 TPO     1       8.477  -2.431  -2.801  0.00  0.00    -0.222 OA
ENDBRANCH  39  40
ENDBRANCH  36  39
ENDBRANCH  35  36
ENDBRANCH  33  35
ENDBRANCH  31  33
ENDBRANCH  28  31
ENDBRANCH   5  28
TORSDOF 10
