REMARK  Name = Abacavir_ABC_PO3.pdb
REMARK  10 active torsions:
REMARK  status: ('A' for Active; 'I' for Inactive)
REMARK    1  A    between atoms: P1_2  and  O4_4
REMARK    2  A    between atoms: P1_2  and  O3_13
REMARK    3  A    between atoms: O4_4  and  P2_5
REMARK    4  A    between atoms: P2_5  and  O7_8
REMARK    5  A    between atoms: O7_8  and  P3_9
REMARK    6  A    between atoms: O3_13  and  C12_31
REMARK    7  A    between atoms: N1_14  and  C1_20
REMARK    8  A    between atoms: N1_14  and  C9_28
REMARK    9  A    between atoms: N2_15  and  C4_23
REMARK   10  A    between atoms: C6_25  and  C12_31
REMARK                            x       y       z     vdW  Elec       q    Type
REMARK                         _______ _______ _______ _____ _____    ______ ____
ROOT
ATOM      1  C4  ABC     1       4.286   3.061  -0.271  0.00  0.00    +0.056 C 
ATOM      2  C5  ABC     1       2.955   2.951   0.494  0.00  0.00    -0.020 C 
ATOM      3  C6  ABC     1       1.850   3.021  -0.570  0.00  0.00    +0.003 C 
ATOM      4  C7  ABC     1       3.919   2.617  -1.645  0.00  0.00    -0.065 C 
ATOM      5  C8  ABC     1       2.554   2.565  -1.803  0.00  0.00    -0.081 C 
ATOM      6  H4  ABC     1       4.639   4.114  -0.325  0.00  0.00    +0.057 HD
ATOM      7  H52 ABC     1       2.838   3.605   1.384  0.00  0.00    +0.029 HD
ATOM      8  H53 ABC     1       2.919   1.916   0.892  0.00  0.00    +0.029 HD
ATOM      9  H6  ABC     1       1.540   4.068  -0.768  0.00  0.00    +0.037 HD
ATOM     10  H7  ABC     1       4.622   2.432  -2.447  0.00  0.00    +0.059 HD
ATOM     11  H8  ABC     1       2.076   2.348  -2.749  0.00  0.00    +0.057 HD
ENDROOT
BRANCH   1  12
ATOM     12  N2  ABC     1       5.303   2.177   0.312  0.00  0.00    -0.310 N 
ATOM     13  N3  ABC     1       7.171   1.439   1.333  0.00  0.00    -0.235 NA
ATOM     14  N4  ABC     1       5.482  -1.883   0.777  0.00  0.00    -0.221 NA
ATOM     15  N5  ABC     1       4.255  -0.026  -0.043  0.00  0.00    -0.163 NA
ATOM     16  N6  ABC     1       3.431  -2.317  -0.289  0.00  0.00    -0.330 N 
ATOM     17  C9  ABC     1       6.593  -1.072   1.300  0.00  0.00    +0.205 C 
ATOM     18  C10 ABC     1       5.268   0.839   0.408  0.00  0.00    +0.153 A 
ATOM     19  C11 ABC     1       6.379   0.392   1.024  0.00  0.00    +0.129 A 
ATOM     20  C13 ABC     1       6.486   2.521   0.873  0.00  0.00    +0.098 A 
ATOM     21  C14 ABC     1       4.428  -1.422   0.168  0.00  0.00    +0.201 C 
ATOM     22  H13 ABC     1       6.843   3.539   0.962  0.00  0.00    +0.103 HD
ATOM     23 HN61 ABC     1       3.533  -3.332  -0.150  0.00  0.00    +0.145 HD
ATOM     24 HN62 ABC     1       2.595  -1.956  -0.771  0.00  0.00    +0.145 HD
BRANCH  17  25
ATOM     25  N1  ABC     1       7.868  -1.531   0.746  0.00  0.00    -0.281 NA
ATOM     26  HN1 ABC     1       8.619  -0.950   1.189  0.00  0.00    +0.125 HD
BRANCH  25  27
ATOM     27  C1  ABC     1       8.075  -2.930   1.140  0.00  0.00    +0.010 C 
ATOM     28  C2  ABC     1       8.461  -3.867   0.001  0.00  0.00    -0.036 C 
ATOM     29  C3  ABC     1       9.532  -3.323   0.925  0.00  0.00    -0.036 C 
ATOM     30  H1  ABC     1       7.892  -3.206   2.203  0.00  0.00    +0.046 HD
ATOM     31  H22 ABC     1       8.243  -3.329  -0.948  0.00  0.00    +0.028 HD
ATOM     32  H23 ABC     1       7.947  -4.820   0.242  0.00  0.00    +0.028 HD
ATOM     33  H32 ABC     1      10.192  -2.709   0.277  0.00  0.00    +0.028 HD
ATOM     34  H33 ABC     1       9.931  -4.213   1.456  0.00  0.00    +0.028 HD
ENDBRANCH  25  27
ENDBRANCH  17  25
ENDBRANCH   1  12
BRANCH   3  35
ATOM     35  C12 ABC     1       0.641   2.134  -0.194  0.00  0.00    +0.065 C 
ATOM     36 H122 ABC     1       0.133   2.496   0.729  0.00  0.00    +0.057 HD
ATOM     37 H123 ABC     1       1.000   1.112   0.055  0.00  0.00    +0.057 HD
BRANCH  35  38
ATOM     38  O3  ABC     1      -0.242   1.979  -1.280  0.00  0.00    -0.284 OA
BRANCH  38  40
ATOM     39  O1  ABC     1      -0.926   4.481  -0.487  0.00  0.00    -0.224 OA
ATOM     40  P1  ABC     1      -1.409   3.284  -1.353  0.00  0.00    +0.513 P 
ATOM     41  O2  ABC     1      -1.511   3.840  -2.996  0.00  0.00    -0.116 OA
BRANCH  40  42
ATOM     42  O4  ABC     1      -2.955   2.764  -0.736  0.00  0.00    -0.183 OA
BRANCH  42  43
ATOM     43  P2  ABC     1      -4.165   3.857  -1.359  0.00  0.00    +0.522 P 
ATOM     44  O5  ABC     1      -3.510   5.404  -1.816  0.00  0.00    -0.224 OA
ATOM     45  O6  ABC     1      -4.754   3.189  -2.630  0.00  0.00    -0.116 OA
BRANCH  43  46
ATOM     46  O7  ABC     1      -5.459   4.026  -0.201  0.00  0.00    -0.181 OA
BRANCH  46  47
ATOM     47  P3  ABC     1      -6.548   5.243  -0.817  0.00  0.00    +0.540 P 
ATOM     48  O8  ABC     1      -5.811   6.610  -0.817  0.00  0.00    -0.222 OA
ATOM     49  O9  ABC     1      -7.079   4.917  -2.438  0.00  0.00    -0.114 OA
ATOM     50  O10 ABC     1      -7.911   5.425   0.240  0.00  0.00    -0.114 OA
ENDBRANCH  46  47
ENDBRANCH  43  46
ENDBRANCH  42  43
ENDBRANCH  40  42
ENDBRANCH  38  40
ENDBRANCH  35  38
ENDBRANCH   3  35
TORSDOF 10
