REMARK  Name = Lamivudine_3TC_TriPO3.pdb
REMARK  8 active torsions:
REMARK  status: ('A' for Active; 'I' for Inactive)
REMARK    1  A    between atoms: P1_2  and  O4_4
REMARK    2  A    between atoms: P1_2  and  O12_15
REMARK    3  A    between atoms: O4_4  and  P2_5
REMARK    4  A    between atoms: P2_5  and  O7_8
REMARK    5  A    between atoms: O7_8  and  P3_9
REMARK    6  A    between atoms: O12_15  and  C4_23
REMARK    7  A    between atoms: N1_17  and  C1_20
REMARK    8  A    between atoms: C3_22  and  C4_23
REMARK                            x       y       z     vdW  Elec       q    Type
REMARK                         _______ _______ _______ _____ _____    ______ ____
ROOT
ATOM      1  S1  3TC     1       0.906  -0.165  -1.650  0.00  0.00    -0.123 S 
ATOM      2  O11 3TC     1       1.728  -2.528  -2.683  0.00  0.00    -0.340 OA
ATOM      3  C1  3TC     1       2.308  -2.326  -1.419  0.00  0.00    +0.150 C 
ATOM      4  C2  3TC     1       1.365  -1.506  -0.566  0.00  0.00    +0.042 C 
ATOM      5  C3  3TC     1       0.994  -1.369  -3.033  0.00  0.00    +0.131 C 
ATOM      6  H1  3TC     1       3.239  -1.730  -1.563  0.00  0.00    +0.085 HD
ATOM      7  H22 3TC     1       1.892  -1.148   0.343  0.00  0.00    +0.042 HD
ATOM      8  H23 3TC     1       0.448  -2.062  -0.281  0.00  0.00    +0.042 HD
ATOM      9  H3  3TC     1       1.517  -0.875  -3.879  0.00  0.00    +0.074 HD
ENDROOT
BRANCH   3  11
ATOM     10  O3  3TC     1       4.771  -3.123  -0.376  0.00  0.00    -0.244 OA
ATOM     11  N1  3TC     1       2.598  -3.627  -0.783  0.00  0.00    -0.272 N 
ATOM     12  N2  3TC     1       4.098  -5.136   0.276  0.00  0.00    -0.178 NA
ATOM     13  N3  3TC     1       3.415  -7.318   0.994  0.00  0.00    -0.343 N 
ATOM     14  C5  3TC     1       1.601  -4.558  -0.675  0.00  0.00    +0.015 A 
ATOM     15  C6  3TC     1       3.861  -3.930  -0.302  0.00  0.00    +0.352 A 
ATOM     16  C7  3TC     1       1.845  -5.799  -0.091  0.00  0.00    -0.006 A 
ATOM     17  C8  3TC     1       3.124  -6.073   0.390  0.00  0.00    +0.123 A 
ATOM     18  H5  3TC     1       0.606  -4.351  -1.052  0.00  0.00    +0.081 HD
ATOM     19  H7  3TC     1       1.051  -6.532  -0.017  0.00  0.00    +0.067 HD
ATOM     20 HN31 3TC     1       2.691  -8.046   1.083  0.00  0.00    +0.144 HD
ATOM     21 HN32 3TC     1       4.361  -7.509   1.355  0.00  0.00    +0.144 HD
ENDBRANCH   3  11
BRANCH   5  22
ATOM     22  C4  3TC     1      -0.418  -1.773  -3.449  0.00  0.00    +0.095 C 
ATOM     23  H42 3TC     1      -0.360  -2.462  -4.320  0.00  0.00    +0.060 HD
ATOM     24  H43 3TC     1      -0.936  -0.835  -3.746  0.00  0.00    +0.060 HD
BRANCH  22  25
ATOM     25  O12 3TC     1      -1.052  -2.423  -2.370  0.00  0.00    -0.281 OA
BRANCH  25  27
ATOM     26  O1  3TC     1      -3.019  -3.473  -3.813  0.00  0.00    -0.224 OA
ATOM     27  P1  3TC     1      -2.770  -2.451  -2.670  0.00  0.00    +0.513 P 
ATOM     28  O2  3TC     1      -3.612  -3.008  -1.257  0.00  0.00    -0.116 OA
BRANCH  27  29
ATOM     29  O4  3TC     1      -3.319  -0.878  -3.189  0.00  0.00    -0.183 OA
BRANCH  29  30
ATOM     30  P2  3TC     1      -5.062  -0.869  -3.219  0.00  0.00    +0.522 P 
ATOM     31  O5  3TC     1      -5.575  -2.286  -3.602  0.00  0.00    -0.224 OA
ATOM     32  O6  3TC     1      -5.702  -0.434  -1.664  0.00  0.00    -0.116 OA
BRANCH  30  33
ATOM     33  O7  3TC     1      -5.561   0.243  -4.469  0.00  0.00    -0.181 OA
BRANCH  33  34
ATOM     34  P3  3TC     1      -7.300   0.184  -4.577  0.00  0.00    +0.540 P 
ATOM     35  O8  3TC     1      -7.729  -1.258  -4.960  0.00  0.00    -0.114 OA
ATOM     36  O9  3TC     1      -8.082   0.610  -3.087  0.00  0.00    -0.114 OA
ATOM     37  O10 3TC     1      -7.845   1.211  -5.865  0.00  0.00    -0.222 OA
ENDBRANCH  33  34
ENDBRANCH  30  33
ENDBRANCH  29  30
ENDBRANCH  27  29
ENDBRANCH  25  27
ENDBRANCH  22  25
ENDBRANCH   5  22
TORSDOF 8
