REMARK  Name = Emtricitabine_FTC_TriPO3.pdb
REMARK  8 active torsions:
REMARK  status: ('A' for Active; 'I' for Inactive)
REMARK    1  A    between atoms: P1_2  and  O4_4
REMARK    2  A    between atoms: P1_2  and  O12_16
REMARK    3  A    between atoms: O4_4  and  P2_5
REMARK    4  A    between atoms: P2_5  and  O7_8
REMARK    5  A    between atoms: O7_8  and  P3_9
REMARK    6  A    between atoms: O12_16  and  C4_24
REMARK    7  A    between atoms: N1_18  and  C1_21
REMARK    8  A    between atoms: C3_23  and  C4_24
REMARK                            x       y       z     vdW  Elec       q    Type
REMARK                         _______ _______ _______ _____ _____    ______ ____
ROOT
ATOM      1  S1  FTC     1       1.759  -0.115   0.913  0.00  0.00    -0.123 S 
ATOM      2  O11 FTC     1       1.857  -1.801  -1.204  0.00  0.00    -0.340 OA
ATOM      3  C1  FTC     1       2.689  -2.278  -0.175  0.00  0.00    +0.150 C 
ATOM      4  C2  FTC     1       2.126  -1.839   1.162  0.00  0.00    +0.042 C 
ATOM      5  C3  FTC     1       1.344  -0.534  -0.823  0.00  0.00    +0.131 C 
ATOM      6  H1  FTC     1       3.688  -1.801  -0.300  0.00  0.00    +0.085 HD
ATOM      7  H22 FTC     1       1.177  -2.351   1.421  0.00  0.00    +0.042 HD
ATOM      8  H23 FTC     1       2.878  -2.000   1.963  0.00  0.00    +0.042 HD
ATOM      9  H3  FTC     1       1.815   0.242  -1.463  0.00  0.00    +0.074 HD
ENDROOT
BRANCH   3  12
ATOM     10  F1  FTC     1       0.549  -6.617  -0.167  0.00  0.00    -0.200 F 
ATOM     11  O3  FTC     1       5.051  -3.765  -0.371  0.00  0.00    -0.244 OA
ATOM     12  N1  FTC     1       2.787  -3.752  -0.233  0.00  0.00    -0.269 N 
ATOM     13  N2  FTC     1       4.064  -5.755  -0.356  0.00  0.00    -0.175 NA
ATOM     14  N3  FTC     1       3.048  -7.926  -0.324  0.00  0.00    -0.341 N 
ATOM     15  C5  FTC     1       1.642  -4.502  -0.186  0.00  0.00    +0.051 A 
ATOM     16  C6  FTC     1       4.010  -4.397  -0.326  0.00  0.00    +0.352 A 
ATOM     17  C7  FTC     1       1.695  -5.893  -0.219  0.00  0.00    +0.179 A 
ATOM     18  C8  FTC     1       2.941  -6.515  -0.301  0.00  0.00    +0.159 A 
ATOM     19  H5  FTC     1       0.671  -4.025  -0.122  0.00  0.00    +0.084 HD
ATOM     20 HN31 FTC     1       2.210  -8.524  -0.279  0.00  0.00    +0.144 HD
ATOM     21 HN32 FTC     1       3.974  -8.375  -0.376  0.00  0.00    +0.144 HD
ENDBRANCH   3  12
BRANCH   5  22
ATOM     22  C4  FTC     1      -0.175  -0.526  -1.012  0.00  0.00    +0.095 C 
ATOM     23  H42 FTC     1      -0.555   0.464  -0.675  0.00  0.00    +0.060 HD
ATOM     24  H43 FTC     1      -0.407  -0.627  -2.093  0.00  0.00    +0.060 HD
BRANCH  22  25
ATOM     25  O12 FTC     1      -0.733  -1.639  -0.349  0.00  0.00    -0.281 OA
BRANCH  25  27
ATOM     26  O1  FTC     1      -3.155  -2.308   0.421  0.00  0.00    -0.224 OA
ATOM     27  P1  FTC     1      -2.104  -1.185   0.638  0.00  0.00    +0.513 P 
ATOM     28  O2  FTC     1      -1.676  -1.227   2.321  0.00  0.00    -0.116 OA
BRANCH  27  29
ATOM     29  O4  FTC     1      -2.875   0.309   0.159  0.00  0.00    -0.183 OA
BRANCH  29  30
ATOM     30  P2  FTC     1      -3.882   0.826   1.492  0.00  0.00    +0.522 P 
ATOM     31  O5  FTC     1      -4.636  -0.418   2.042  0.00  0.00    -0.224 OA
ATOM     32  O6  FTC     1      -2.919   1.497   2.773  0.00  0.00    -0.116 OA
BRANCH  30  33
ATOM     33  O7  FTC     1      -5.082   1.958   0.922  0.00  0.00    -0.181 OA
BRANCH  33  34
ATOM     34  P3  FTC     1      -6.115   2.356   2.274  0.00  0.00    +0.540 P 
ATOM     35  O8  FTC     1      -6.866   1.074   2.723  0.00  0.00    -0.114 OA
ATOM     36  O9  FTC     1      -5.238   2.972   3.641  0.00  0.00    -0.114 OA
ATOM     37  O10 FTC     1      -7.338   3.486   1.787  0.00  0.00    -0.222 OA
ENDBRANCH  33  34
ENDBRANCH  30  33
ENDBRANCH  29  30
ENDBRANCH  27  29
ENDBRANCH  25  27
ENDBRANCH  22  25
ENDBRANCH   5  22
TORSDOF 8
