REMARK  Name = Azvudine_FNC_TriPO3.pdb
REMARK  9 active torsions:
REMARK  status: ('A' for Active; 'I' for Inactive)
REMARK    1  A    between atoms: P1_2  and  O4_4
REMARK    2  A    between atoms: P1_2  and  O12_19
REMARK    3  A    between atoms: O4_4  and  P2_5
REMARK    4  A    between atoms: P2_5  and  O7_8
REMARK    5  A    between atoms: O7_8  and  P3_9
REMARK    6  A    between atoms: C3_15  and  N4_25
REMARK    7  A    between atoms: C4_17  and  C5_18
REMARK    8  A    between atoms: C4_17  and  N1_20
REMARK    9  A    between atoms: C5_18  and  O12_19
REMARK                            x       y       z     vdW  Elec       q    Type
REMARK                         _______ _______ _______ _____ _____    ______ ____
ROOT
ATOM      1  C1  FNC     1      -1.894   1.601  -0.139  0.00  0.00    +0.268 C 
ATOM      2  C2  FNC     1      -3.231   2.100  -0.314  0.00  0.00    +0.205 C 
ATOM      3  C3  FNC     1      -4.041   1.032  -0.388  0.00  0.00    +0.241 C 
ATOM      4  O11 FNC     1      -3.321  -0.120  -0.263  0.00  0.00    -0.438 OA
ATOM      5  C4  FNC     1      -1.962   0.109  -0.119  0.00  0.00    +0.300 C 
ATOM      6  O3  FNC     1      -0.766   2.366  -0.026  0.00  0.00    -0.209 OA
ATOM      7  F1  FNC     1      -3.522   3.423  -0.366  0.00  0.00    -0.201 F 
ENDROOT
BRANCH   3   8
ATOM      8  N4  FNC     1      -5.495   1.009  -0.568  0.00  0.00    -0.236 N 
ATOM      9  C6  FNC     1      -6.286   2.117  -0.863  0.00  0.00    +0.357 A 
ATOM     10  N5  FNC     1      -7.629   1.984  -1.010  0.00  0.00    -0.178 NA
ATOM     11  C7  FNC     1      -8.250   0.790  -0.881  0.00  0.00    +0.123 A 
ATOM     12  C8  FNC     1      -7.496  -0.342  -0.595  0.00  0.00    -0.005 A 
ATOM     13  C9  FNC     1      -6.116  -0.209  -0.445  0.00  0.00    +0.021 A 
ATOM     14  O14 FNC     1      -5.808   3.222  -1.016  0.00  0.00    -0.244 OA
ATOM     15  N6  FNC     1      -9.653   0.708  -1.041  0.00  0.00    -0.343 N 
ATOM     16  H8  FNC     1      -7.967  -1.311  -0.488  0.00  0.00    +0.067 HD
ATOM     17  H9  FNC     1      -5.552  -1.106  -0.219  0.00  0.00    +0.082 HD
ATOM     18  H61 FNC     1     -10.200   1.555  -1.256  0.00  0.00    +0.144 HD
ATOM     19  H62 FNC     1     -10.146  -0.192  -0.946  0.00  0.00    +0.144 HD
ENDBRANCH   3   8
BRANCH   5  20
ATOM     20  C5  FNC     1      -1.465  -0.456   1.229  0.00  0.00    +0.126 C 
ATOM     21  H52 FNC     1      -2.168  -0.113   2.018  0.00  0.00    +0.063 HD
ATOM     22  H53 FNC     1      -1.523  -1.566   1.273  0.00  0.00    +0.063 HD
BRANCH  20  23
ATOM     23  O12 FNC     1      -0.200   0.052   1.602  0.00  0.00    -0.279 OA
BRANCH  23  25
ATOM     24  O1  FNC     1       0.618  -2.179   0.285  0.00  0.00    -0.224 OA
ATOM     25  P1  FNC     1       1.132  -0.843   0.891  0.00  0.00    +0.513 P 
ATOM     26  O2  FNC     1       1.838   0.078  -0.403  0.00  0.00    -0.116 OA
BRANCH  25  27
ATOM     27  O4  FNC     1       2.279  -1.266   2.142  0.00  0.00    -0.183 OA
BRANCH  27  28
ATOM     28  P2  FNC     1       3.890  -0.929   1.558  0.00  0.00    +0.522 P 
ATOM     29  O5  FNC     1       4.030  -1.621   0.173  0.00  0.00    -0.224 OA
ATOM     30  O6  FNC     1       4.147   0.781   1.382  0.00  0.00    -0.116 OA
BRANCH  28  31
ATOM     31  O7  FNC     1       5.035  -1.649   2.668  0.00  0.00    -0.181 OA
BRANCH  31  32
ATOM     32  P3  FNC     1       6.639  -1.704   1.959  0.00  0.00    +0.540 P 
ATOM     33  O8  FNC     1       6.614  -1.409   0.434  0.00  0.00    -0.222 OA
ATOM     34  O9  FNC     1       7.704  -0.543   2.687  0.00  0.00    -0.114 OA
ATOM     35  O10 FNC     1       7.303  -3.298   2.137  0.00  0.00    -0.114 OA
ENDBRANCH  31  32
ENDBRANCH  28  31
ENDBRANCH  27  28
ENDBRANCH  25  27
ENDBRANCH  23  25
ENDBRANCH  20  23
ENDBRANCH   5  20
BRANCH   5  36
ATOM     36  N1  FNC     1      -1.258  -0.512  -1.229  0.00  0.00    -0.055 NA
ATOM     37  N2  FNC     1      -0.652   0.131  -2.072  0.00  0.00    -0.163 NA
ATOM     38  N3  FNC     1      -0.049   0.770  -2.914  0.00  0.00    +0.068 NA
ENDBRANCH   5  36
TORSDOF 9
