REMARK  Name = Tenofovirdisopoxil_TDF_DiPO3.pdb
REMARK  10 active torsions:
REMARK  status: ('A' for Active; 'I' for Inactive)
REMARK    1  A    between atoms: P_1  and  C_16
REMARK    2  A    between atoms: P_1  and  O_36
REMARK    3  A    between atoms: O_2  and  C_10
REMARK    4  A    between atoms: O_2  and  C_16
REMARK    5  A    between atoms: N_5  and  C_11
REMARK    6  A    between atoms: C_10  and  C_11
REMARK    7  A    between atoms: C_10  and  C_13
REMARK    8  A    between atoms: P_34  and  O_39
REMARK    9  A    between atoms: O_36  and  P_37
REMARK   10  A    between atoms: P_37  and  O_39
REMARK                            x       y       z     vdW  Elec       q    Type
REMARK                         _______ _______ _______ _____ _____    ______ ____
ROOT
ATOM      1  C   TDF     1      -0.972  -2.391   0.388  0.00  0.00    +0.075 C 
ATOM      2  H   TDF     1      -0.713  -3.089  -0.442  0.00  0.00    +0.061 HD
ENDROOT
BRANCH   1   3
ATOM      3  C   TDF     1      -1.993  -3.048   1.343  0.00  0.00    -0.037 C 
ATOM      4  H   TDF     1      -2.942  -3.300   0.835  0.00  0.00    +0.026 HD
ATOM      5  H   TDF     1      -1.580  -3.995   1.750  0.00  0.00    +0.026 HD
ATOM      6  H   TDF     1      -2.229  -2.365   2.188  0.00  0.00    +0.026 HD
ENDBRANCH   1   3
BRANCH   1   7
ATOM      7  C   TDF     1       0.311  -2.118   1.182  0.00  0.00    +0.052 C 
ATOM      8  H   TDF     1       0.053  -1.489   2.063  0.00  0.00    +0.052 HD
ATOM      9  H   TDF     1       0.746  -3.070   1.556  0.00  0.00    +0.052 HD
BRANCH   7  10
ATOM     10  N   TDF     1       1.301  -1.419   0.367  0.00  0.00    -0.312 N 
ATOM     11  N   TDF     1       2.806  -0.933  -1.246  0.00  0.00    -0.231 NA
ATOM     12  N   TDF     1       1.470   0.673   1.567  0.00  0.00    -0.216 NA
ATOM     13  N   TDF     1       3.014   2.210   0.618  0.00  0.00    -0.219 NA
ATOM     14  N   TDF     1       4.290   1.686  -1.364  0.00  0.00    -0.341 N 
ATOM     15  C   TDF     1       1.790  -0.191   0.573  0.00  0.00    +0.165 A 
ATOM     16  C   TDF     1       2.691   0.103  -0.391  0.00  0.00    +0.147 A 
ATOM     17  C   TDF     1       1.934  -1.854  -0.752  0.00  0.00    +0.098 A 
ATOM     18  C   TDF     1       3.336   1.335  -0.383  0.00  0.00    +0.147 A 
ATOM     19  C   TDF     1       2.092   1.889   1.582  0.00  0.00    +0.120 A 
ATOM     20  H   TDF     1       1.771  -2.826  -1.201  0.00  0.00    +0.103 HD
ATOM     21  H   TDF     1       1.855   2.601   2.360  0.00  0.00    +0.105 HD
ATOM     22  H   TDF     1       4.540   1.029  -2.117  0.00  0.00    +0.144 HD
ATOM     23  H   TDF     1       4.751   2.607  -1.329  0.00  0.00    +0.144 HD
ENDBRANCH   7  10
ENDBRANCH   1   7
BRANCH   1  24
ATOM     24  O   TDF     1      -1.454  -1.159  -0.136  0.00  0.00    -0.363 OA
BRANCH  24  25
ATOM     25  C   TDF     1      -2.505  -1.361  -1.065  0.00  0.00    +0.152 C 
ATOM     26  H   TDF     1      -2.210  -1.017  -2.078  0.00  0.00    +0.069 HD
ATOM     27  H   TDF     1      -2.797  -2.425  -1.179  0.00  0.00    +0.069 HD
BRANCH  25  28
ATOM     28  P   TDF     1      -3.994  -0.420  -0.475  0.00  0.00    +0.393 P 
ATOM     29  O   TDF     1      -4.232  -0.459   1.244  0.00  0.00    -0.253 OA
ATOM     30  O   TDF     1      -3.785   1.094  -0.749  0.00  0.00    -0.138 OA
BRANCH  28  31
ATOM     31  O   TDF     1      -5.508  -0.799  -1.261  0.00  0.00    -0.203 OA
BRANCH  31  34
ATOM     32  O   TDF     1      -6.324  -2.047   1.214  0.00  0.00    -0.224 OA
ATOM     33  O   TDF     1      -5.075  -3.387  -0.717  0.00  0.00    -0.116 OA
ATOM     34  P   TDF     1      -6.116  -2.255  -0.501  0.00  0.00    +0.520 P 
BRANCH  34  35
ATOM     35  O   TDF     1      -7.580  -2.800  -1.277  0.00  0.00    -0.181 OA
BRANCH  35  37
ATOM     36  O   TDF     1      -7.651  -4.529   1.066  0.00  0.00    -0.222 OA
ATOM     37  P   TDF     1      -8.563  -3.552  -0.046  0.00  0.00    +0.540 P 
ATOM     38  O   TDF     1      -9.554  -2.389   0.777  0.00  0.00    -0.114 OA
ATOM     39  O   TDF     1      -9.530  -4.520  -0.777  0.00  0.00    -0.114 OA
ENDBRANCH  35  37
ENDBRANCH  34  35
ENDBRANCH  31  34
ENDBRANCH  28  31
ENDBRANCH  25  28
ENDBRANCH  24  25
ENDBRANCH   1  24
TORSDOF 10
