REMARK  Name = DIdanosine_EC_TriPO3.pdb
REMARK  8 active torsions:
REMARK  status: ('A' for Active; 'I' for Inactive)
REMARK    1  A    between atoms: P1_2  and  O4_4
REMARK    2  A    between atoms: P1_2  and  O12_14
REMARK    3  A    between atoms: O4_4  and  P2_5
REMARK    4  A    between atoms: P2_5  and  O7_8
REMARK    5  A    between atoms: O7_8  and  P3_9
REMARK    6  A    between atoms: O12_14  and  C5_24
REMARK    7  A    between atoms: N1_16  and  C1_20
REMARK    8  A    between atoms: C4_23  and  C5_24
REMARK                            x       y       z     vdW  Elec       q    Type
REMARK                         _______ _______ _______ _____ _____    ______ ____
ROOT
ATOM      1  O11 EC      1       0.608  -0.507   0.372  0.00  0.00    -0.351 OA
ATOM      2  C1  EC      1       1.846  -0.325   1.039  0.00  0.00    +0.138 C 
ATOM      3  C2  EC      1       2.055   1.179   1.204  0.00  0.00    -0.005 C 
ATOM      4  C3  EC      1       1.437   1.677  -0.058  0.00  0.00    -0.020 C 
ATOM      5  C4  EC      1       0.209   0.770  -0.101  0.00  0.00    +0.085 C 
ATOM      6  H1  EC      1       1.825  -0.778   2.055  0.00  0.00    +0.084 HD
ATOM      7  H22 EC      1       1.416   1.530   2.049  0.00  0.00    +0.031 HD
ATOM      8  H23 EC      1       3.101   1.498   1.401  0.00  0.00    +0.031 HD
ATOM      9  H32 EC      1       1.211   2.765  -0.077  0.00  0.00    +0.029 HD
ATOM     10  H33 EC      1       2.127   1.445  -0.896  0.00  0.00    +0.029 HD
ATOM     11  H4  EC      1      -0.558   1.158   0.608  0.00  0.00    +0.062 HD
ENDROOT
BRANCH   2  13
ATOM     12  O3  EC      1       6.553  -3.267  -0.952  0.00  0.00    -0.265 OA
ATOM     13  N1  EC      1       2.919  -0.962   0.261  0.00  0.00    -0.288 N 
ATOM     14  N2  EC      1       4.128  -1.803  -1.460  0.00  0.00    -0.229 NA
ATOM     15  N3  EC      1       4.374  -1.744   2.033  0.00  0.00    -0.218 NA
ATOM     16  N4  EC      1       6.278  -2.955   1.272  0.00  0.00    -0.312 N 
ATOM     17  C6  EC      1       4.002  -1.592   0.738  0.00  0.00    +0.169 A 
ATOM     18  C7  EC      1       3.021  -1.111  -1.089  0.00  0.00    +0.100 A 
ATOM     19  C8  EC      1       4.724  -2.094  -0.291  0.00  0.00    +0.172 A 
ATOM     20  C9  EC      1       5.891  -2.798  -0.043  0.00  0.00    +0.279 A 
ATOM     21  C10 EC      1       5.527  -2.431   2.295  0.00  0.00    +0.098 A 
ATOM     22  HN4 EC      1       7.153  -3.480   1.497  0.00  0.00    +0.170 HD
ATOM     23  H7  EC      1       2.299  -0.744  -1.799  0.00  0.00    +0.103 HD
ATOM     24  H10 EC      1       5.847  -2.562   3.320  0.00  0.00    +0.103 HD
ENDBRANCH   2  13
BRANCH   5  25
ATOM     25  C5  EC      1      -0.373   0.691  -1.520  0.00  0.00    +0.085 C 
ATOM     26  H52 EC      1      -0.678   1.693  -1.891  0.00  0.00    +0.059 HD
ATOM     27  H53 EC      1       0.416   0.371  -2.227  0.00  0.00    +0.059 HD
BRANCH  25  28
ATOM     28  O12 EC      1      -1.399  -0.272  -1.605  0.00  0.00    -0.282 OA
BRANCH  28  30
ATOM     29  O1  EC      1      -3.092   0.195   0.387  0.00  0.00    -0.116 OA
ATOM     30  P1  EC      1      -2.931   0.434  -1.138  0.00  0.00    +0.513 P 
ATOM     31  O2  EC      1      -2.990   2.151  -1.417  0.00  0.00    -0.224 OA
BRANCH  30  32
ATOM     32  O4  EC      1      -4.244  -0.411  -1.921  0.00  0.00    -0.183 OA
BRANCH  32  33
ATOM     33  P2  EC      1      -5.621   0.664  -1.968  0.00  0.00    +0.522 P 
ATOM     34  O5  EC      1      -5.625   1.515  -0.666  0.00  0.00    -0.116 OA
ATOM     35  O6  EC      1      -5.512   1.739  -3.327  0.00  0.00    -0.224 OA
BRANCH  33  36
ATOM     36  O7  EC      1      -7.099  -0.264  -1.996  0.00  0.00    -0.181 OA
BRANCH  36  37
ATOM     37  P3  EC      1      -8.422   0.859  -1.794  0.00  0.00    +0.540 P 
ATOM     38  O8  EC      1      -8.326   1.486  -0.376  0.00  0.00    -0.114 OA
ATOM     39  O9  EC      1      -8.393   2.152  -2.953  0.00  0.00    -0.222 OA
ATOM     40  O10 EC      1      -9.943   0.027  -1.851  0.00  0.00    -0.114 OA
ENDBRANCH  36  37
ENDBRANCH  33  36
ENDBRANCH  32  33
ENDBRANCH  30  32
ENDBRANCH  28  30
ENDBRANCH  25  28
ENDBRANCH   5  25
TORSDOF 8
