REMARK  Name = Stavudine_TriPO3.pdb
REMARK  9 active torsions:
REMARK  status: ('A' for Active; 'I' for Inactive)
REMARK    1  A    between atoms: P1_2  and  O4_4
REMARK    2  A    between atoms: P1_2  and  O12_14
REMARK    3  A    between atoms: O4_4  and  P2_5
REMARK    4  A    between atoms: P2_5  and  O7_8
REMARK    5  A    between atoms: O7_8  and  P3_9
REMARK    6  A    between atoms: O12_14  and  C5_23
REMARK    7  A    between atoms: N1_17  and  C1_19
REMARK    8  A    between atoms: C2_20  and  C5_23
REMARK    9  A    between atoms: C8_26  and  C10_28
REMARK                            x       y       z     vdW  Elec       q    Type
REMARK                         _______ _______ _______ _____ _____    ______ ____
ROOT
ATOM      1  O11 STA     1      -2.120  -0.542  -2.798  0.00  0.00    -0.343 OA
ATOM      2  C1  STA     1      -2.226   0.523  -3.741  0.00  0.00    +0.159 C 
ATOM      3  C2  STA     1      -1.151  -0.166  -1.829  0.00  0.00    +0.104 C 
ATOM      4  C3  STA     1      -1.182   1.516  -3.414  0.00  0.00    -0.036 C 
ATOM      5  C4  STA     1      -0.570   1.123  -2.281  0.00  0.00    -0.053 C 
ATOM      6  H1  STA     1      -2.005   0.111  -4.749  0.00  0.00    +0.089 HD
ATOM      7  H2  STA     1      -0.309  -0.891  -1.806  0.00  0.00    +0.066 HD
ATOM      8  H3  STA     1      -0.958   2.424  -3.958  0.00  0.00    +0.061 HD
ATOM      9  H4  STA     1       0.227   1.666  -1.789  0.00  0.00    +0.060 HD
ENDROOT
BRANCH   2  12
ATOM     10  O3  STA     1      -4.115   0.588  -5.795  0.00  0.00    -0.246 OA
ATOM     11  O14 STA     1      -7.185   2.839  -3.438  0.00  0.00    -0.267 OA
ATOM     12  N1  STA     1      -3.566   1.155  -3.673  0.00  0.00    -0.270 N 
ATOM     13  N2  STA     1      -5.672   1.717  -4.651  0.00  0.00    -0.275 N 
ATOM     14  C6  STA     1      -3.958   1.785  -2.522  0.00  0.00    +0.020 A 
ATOM     15  C7  STA     1      -4.434   1.130  -4.750  0.00  0.00    +0.332 A 
ATOM     16  C8  STA     1      -5.213   2.379  -2.397  0.00  0.00    +0.030 A 
ATOM     17  C9  STA     1      -6.077   2.333  -3.496  0.00  0.00    +0.257 A 
ATOM     18  HN2 STA     1      -6.320   1.690  -5.472  0.00  0.00    +0.173 HD
ATOM     19  H6  STA     1      -3.290   1.850  -1.679  0.00  0.00    +0.082 HD
BRANCH  16  20
ATOM     20  C10 STA     1      -5.581   3.037  -1.092  0.00  0.00    -0.033 C 
ATOM     21 H101 STA     1      -6.603   3.469  -1.110  0.00  0.00    +0.028 HD
ATOM     22 H102 STA     1      -4.860   3.851  -0.866  0.00  0.00    +0.028 HD
ATOM     23 H103 STA     1      -5.538   2.285  -0.275  0.00  0.00    +0.028 HD
ENDBRANCH  16  20
ENDBRANCH   2  12
BRANCH   3  24
ATOM     24  C5  STA     1      -1.820  -0.094  -0.439  0.00  0.00    +0.089 C 
ATOM     25  H52 STA     1      -1.802  -1.084   0.073  0.00  0.00    +0.059 HD
ATOM     26  H53 STA     1      -2.906   0.084  -0.553  0.00  0.00    +0.059 HD
BRANCH  24  27
ATOM     27  O12 STA     1      -1.337   0.997   0.309  0.00  0.00    -0.282 OA
BRANCH  27  29
ATOM     28  O1  STA     1       0.480   1.747   2.019  0.00  0.00    -0.224 OA
ATOM     29  P1  STA     1      -0.256   0.461   1.556  0.00  0.00    +0.513 P 
ATOM     30  O2  STA     1      -1.137  -0.139   2.928  0.00  0.00    -0.116 OA
BRANCH  29  31
ATOM     31  O4  STA     1       0.972  -0.632   0.974  0.00  0.00    -0.183 OA
BRANCH  31  32
ATOM     32  P2  STA     1       1.775  -1.305   2.376  0.00  0.00    +0.522 P 
ATOM     33  O5  STA     1       1.736  -0.262   3.530  0.00  0.00    -0.116 OA
ATOM     34  O6  STA     1       0.958  -2.737   2.919  0.00  0.00    -0.224 OA
BRANCH  32  35
ATOM     35  O7  STA     1       3.452  -1.619   2.007  0.00  0.00    -0.181 OA
BRANCH  35  36
ATOM     36  P3  STA     1       4.254  -2.002   3.510  0.00  0.00    +0.540 P 
ATOM     37  O8  STA     1       4.245  -0.739   4.413  0.00  0.00    -0.114 OA
ATOM     38  O9  STA     1       3.477  -3.289   4.380  0.00  0.00    -0.114 OA
ATOM     39  O10 STA     1       5.924  -2.380   3.231  0.00  0.00    -0.222 OA
ENDBRANCH  35  36
ENDBRANCH  32  35
ENDBRANCH  31  32
ENDBRANCH  29  31
ENDBRANCH  27  29
ENDBRANCH  24  27
ENDBRANCH   3  24
TORSDOF 9
